# Forces     
# CofR       : (4.974613e-01 -1.671896e-02 1.250000e-01)
# Time       forces(pressure viscous porous)	moments(pressure viscous porous)
10           	((-2.225302e+02 1.194625e+02 -3.581163e-16) (2.091149e+00 -1.414626e+00 -5.027696e-19) (0.000000e+00 0.000000e+00 0.000000e+00)) ((1.502241e-15 1.686753e-15 -2.635737e+02) (-6.638962e-18 -1.062396e-17 3.857731e-01) (0.000000e+00 0.000000e+00 0.000000e+00))
20           	((-7.359828e+01 3.993610e+02 -8.990852e-17) (1.155265e+00 -1.774422e-01 2.429352e-19) (0.000000e+00 0.000000e+00 0.000000e+00)) ((2.261994e-15 3.516741e-16 -7.231494e+01) (-5.010369e-20 -6.518922e-18 2.205160e-02) (0.000000e+00 0.000000e+00 0.000000e+00))
30           	((-7.361106e+01 1.606820e+02 -2.379646e-17) (6.636010e-01 -1.306471e-01 -3.563070e-19) (0.000000e+00 0.000000e+00 0.000000e+00)) ((9.299130e-16 2.922100e-16 -5.922173e+01) (-1.125156e-18 -7.108838e-18 6.495766e-03) (0.000000e+00 0.000000e+00 0.000000e+00))
40           	((-2.165787e+01 1.871777e+02 2.039543e-17) (6.336728e-01 -1.333143e-01 -1.022117e-19) (0.000000e+00 0.000000e+00 0.000000e+00)) ((1.028312e-15 9.143747e-17 -4.147735e+01) (-8.297120e-19 -6.649618e-18 1.551421e-02) (0.000000e+00 0.000000e+00 0.000000e+00))
50           	((7.332675e+00 2.297146e+02 4.684550e-18) (6.743690e-01 -1.242253e-01 1.674082e-19) (0.000000e+00 0.000000e+00 0.000000e+00)) ((1.242816e-15 -5.214057e-17 -3.069193e+01) (-6.279987e-19 -5.973739e-18 1.882543e-02) (0.000000e+00 0.000000e+00 0.000000e+00))
60           	((7.328654e+00 2.463512e+02 5.645457e-18) (8.823182e-01 -5.254891e-02 8.149013e-20) (0.000000e+00 0.000000e+00 0.000000e+00)) ((1.796204e-15 -3.934494e-17 -3.721200e+01) (-1.706215e-19 -5.783768e-18 -1.777663e-02) (0.000000e+00 0.000000e+00 0.000000e+00))
70           	((1.322382e+01 2.524458e+02 6.645799e-18) (1.013408e+00 -3.038602e-02 8.401192e-20) (0.000000e+00 0.000000e+00 0.000000e+00)) ((1.792388e-15 -8.192979e-17 -3.211965e+01) (9.483164e-20 -6.244703e-18 -2.779994e-02) (0.000000e+00 0.000000e+00 0.000000e+00))
80           	((1.709249e+01 2.668787e+02 7.054411e-18) (1.100603e+00 1.127304e-04 6.652080e-20) (0.000000e+00 0.000000e+00 0.000000e+00)) ((1.785033e-15 -9.807362e-17 -2.938158e+01) (2.801708e-19 -6.484107e-18 -4.156333e-02) (0.000000e+00 0.000000e+00 0.000000e+00))
90           	((1.883507e+01 2.648299e+02 8.392835e-18) (1.177845e+00 1.826481e-02 -1.957068e-20) (0.000000e+00 0.000000e+00 0.000000e+00)) ((1.546298e-15 -7.609810e-17 -2.351411e+01) (2.232722e-19 -7.857140e-18 -5.232601e-02) (0.000000e+00 0.000000e+00 0.000000e+00))
100          	((1.970584e+01 2.700820e+02 1.074626e-17) (1.231208e+00 3.016845e-02 -9.618217e-20) (0.000000e+00 0.000000e+00 0.000000e+00)) ((1.445455e-15 -4.941065e-17 -1.888522e+01) (1.363267e-19 -8.773535e-18 -5.915872e-02) (0.000000e+00 0.000000e+00 0.000000e+00))
110          	((1.972893e+01 2.664376e+02 1.166481e-17) (1.268879e+00 3.942748e-02 -1.018122e-19) (0.000000e+00 0.000000e+00 0.000000e+00)) ((1.469360e-15 -5.569943e-17 -1.455727e+01) (2.317667e-19 -8.592030e-18 -6.280036e-02) (0.000000e+00 0.000000e+00 0.000000e+00))
120          	((1.340566e+01 2.218516e+02 9.271754e-18) (1.322296e+00 3.419501e-02 1.998625e-20) (0.000000e+00 0.000000e+00 0.000000e+00)) ((1.210762e-15 -2.887710e-17 -1.830088e+01) (2.428523e-19 -8.659745e-18 -6.705742e-02) (0.000000e+00 0.000000e+00 0.000000e+00))
130          	((-2.643121e+00 1.040754e+02 -1.479138e-18) (1.455993e+00 -7.074612e-03 1.471699e-19) (0.000000e+00 0.000000e+00 0.000000e+00)) ((4.473567e-16 4.850144e-17 -3.428205e+01) (7.106460e-20 -9.404392e-18 -7.517674e-02) (0.000000e+00 0.000000e+00 0.000000e+00))
140          	((6.579938e-01 1.074296e+02 3.090750e-18) (1.503975e+00 -3.087283e-02 6.558136e-20) (0.000000e+00 0.000000e+00 0.000000e+00)) ((5.906606e-16 9.863011e-18 -2.633355e+01) (-1.522051e-20 -9.534520e-18 -7.377082e-02) (0.000000e+00 0.000000e+00 0.000000e+00))
150          	((5.579422e+00 1.291808e+02 6.685898e-18) (1.516392e+00 -3.779831e-02 3.932046e-20) (0.000000e+00 0.000000e+00 0.000000e+00)) ((7.613069e-16 -2.165051e-17 -2.012854e+01) (-4.561045e-20 -9.505188e-18 -7.047334e-02) (0.000000e+00 0.000000e+00 0.000000e+00))
160          	((7.569768e+00 1.504774e+02 7.363571e-18) (1.521043e+00 -3.542730e-02 3.452128e-20) (0.000000e+00 0.000000e+00 0.000000e+00)) ((9.125865e-16 -3.316913e-17 -1.928525e+01) (-5.162682e-20 -9.556075e-18 -6.945275e-02) (0.000000e+00 0.000000e+00 0.000000e+00))
170          	((7.436282e+00 1.641495e+02 6.944802e-18) (1.529904e+00 -3.203685e-02 3.791202e-20) (0.000000e+00 0.000000e+00 0.000000e+00)) ((9.968792e-16 -3.102475e-17 -2.184525e+01) (-3.939989e-20 -9.612742e-18 -7.157983e-02) (0.000000e+00 0.000000e+00 0.000000e+00))
180          	((7.291446e+00 1.773232e+02 6.444415e-18) (1.541196e+00 -2.941546e-02 4.181174e-20) (0.000000e+00 0.000000e+00 0.000000e+00)) ((1.079308e-15 -2.857426e-17 -2.388869e+01) (-2.123605e-20 -9.640900e-18 -7.477908e-02) (0.000000e+00 0.000000e+00 0.000000e+00))
190          	((7.365795e+00 1.901097e+02 6.013367e-18) (1.551206e+00 -2.675531e-02 4.601257e-20) (0.000000e+00 0.000000e+00 0.000000e+00)) ((1.156201e-15 -2.679422e-17 -2.521990e+01) (-4.435726e-21 -9.663030e-18 -7.772995e-02) (0.000000e+00 0.000000e+00 0.000000e+00))
200          	((7.277060e+00 2.000082e+02 5.629040e-18) (1.561789e+00 -2.508854e-02 5.003674e-20) (0.000000e+00 0.000000e+00 0.000000e+00)) ((1.211706e-15 -2.429319e-17 -2.640855e+01) (8.111817e-21 -9.701941e-18 -8.051109e-02) (0.000000e+00 0.000000e+00 0.000000e+00))
210          	((7.215845e+00 2.081144e+02 5.327909e-18) (1.570582e+00 -2.369660e-02 5.331098e-20) (0.000000e+00 0.000000e+00 0.000000e+00)) ((1.255906e-15 -2.216316e-17 -2.722539e+01) (1.768974e-20 -9.749054e-18 -8.287401e-02) (0.000000e+00 0.000000e+00 0.000000e+00))
220          	((7.238247e+00 2.150671e+02 5.112207e-18) (1.576477e+00 -2.204704e-02 5.607681e-20) (0.000000e+00 0.000000e+00 0.000000e+00)) ((1.294681e-15 -2.079901e-17 -2.774208e+01) (2.628578e-20 -9.793310e-18 -8.463983e-02) (0.000000e+00 0.000000e+00 0.000000e+00))
230          	((7.216556e+00 2.207581e+02 4.880911e-18) (1.579774e+00 -2.012253e-02 5.919292e-20) (0.000000e+00 0.000000e+00 0.000000e+00)) ((1.327718e-15 -1.954998e-17 -2.822939e+01) (3.451851e-20 -9.832218e-18 -8.586923e-02) (0.000000e+00 0.000000e+00 0.000000e+00))
240          	((7.037351e+00 2.247652e+02 4.576920e-18) (1.581471e+00 -1.814676e-02 6.262626e-20) (0.000000e+00 0.000000e+00 0.000000e+00)) ((1.351043e-15 -1.774537e-17 -2.884562e+01) (4.204350e-20 -9.865778e-18 -8.682465e-02) (0.000000e+00 0.000000e+00 0.000000e+00))
250          	((6.732250e+00 2.271462e+02 4.243003e-18) (1.582616e+00 -1.660128e-02 6.580158e-20) (0.000000e+00 0.000000e+00 0.000000e+00)) ((1.364185e-15 -1.550639e-17 -2.953565e+01) (4.772372e-20 -9.892310e-18 -8.767218e-02) (0.000000e+00 0.000000e+00 0.000000e+00))
260          	((6.425758e+00 2.284800e+02 3.957559e-18) (1.583823e+00 -1.575424e-02 6.824857e-20) (0.000000e+00 0.000000e+00 0.000000e+00)) ((1.371039e-15 -1.347156e-17 -3.013591e+01) (5.118155e-20 -9.909124e-18 -8.847657e-02) (0.000000e+00 0.000000e+00 0.000000e+00))
270          	((6.206086e+00 2.294127e+02 3.760306e-18) (1.585266e+00 -1.554285e-02 6.991682e-20) (0.000000e+00 0.000000e+00 0.000000e+00)) ((1.375851e-15 -1.204716e-17 -3.056689e+01) (5.289001e-20 -9.915522e-18 -8.924931e-02) (0.000000e+00 0.000000e+00 0.000000e+00))
280          	((6.081096e+00 2.303164e+02 3.639846e-18) (1.586955e+00 -1.575574e-02 7.102733e-20) (0.000000e+00 0.000000e+00 0.000000e+00)) ((1.380819e-15 -1.119957e-17 -3.085616e+01) (5.348395e-20 -9.914257e-18 -8.999093e-02) (0.000000e+00 0.000000e+00 0.000000e+00))
290          	((6.018028e+00 2.313221e+02 3.564551e-18) (1.588819e+00 -1.618515e-02 7.184457e-20) (0.000000e+00 0.000000e+00 0.000000e+00)) ((1.386587e-15 -1.070369e-17 -3.106613e+01) (5.350281e-20 -9.909171e-18 -9.069928e-02) (0.000000e+00 0.000000e+00 0.000000e+00))
300          	((5.985883e+00 2.324447e+02 3.508058e-18) (1.590689e+00 -1.668006e-02 7.256770e-20) (0.000000e+00 0.000000e+00 0.000000e+00)) ((1.393153e-15 -1.036870e-17 -3.124058e+01) (5.334518e-20 -9.902637e-18 -9.136399e-02) (0.000000e+00 0.000000e+00 0.000000e+00))
310          	((5.964950e+00 2.336402e+02 3.455466e-18) (1.592407e+00 -1.714499e-02 7.330545e-20) (0.000000e+00 0.000000e+00 0.000000e+00)) ((1.400198e-15 -1.008209e-17 -3.140162e+01) (5.329834e-20 -9.895772e-18 -9.197723e-02) (0.000000e+00 0.000000e+00 0.000000e+00))
320          	((5.944706e+00 2.348413e+02 3.400973e-18) (1.593881e+00 -1.753940e-02 7.408193e-20) (0.000000e+00 0.000000e+00 0.000000e+00)) ((1.407286e-15 -9.791663e-18 -3.155729e+01) (5.345754e-20 -9.889099e-18 -9.253271e-02) (0.000000e+00 0.000000e+00 0.000000e+00))
330          	((5.922275e+00 2.359931e+02 3.344887e-18) (1.595077e+00 -1.785266e-02 7.487390e-20) (0.000000e+00 0.000000e+00 0.000000e+00)) ((1.414079e-15 -9.489802e-18 -3.170633e+01) (5.381464e-20 -9.882861e-18 -9.302722e-02) (0.000000e+00 0.000000e+00 0.000000e+00))
340          	((5.899237e+00 2.370667e+02 3.290074e-18) (1.595998e+00 -1.808528e-02 7.564571e-20) (0.000000e+00 0.000000e+00 0.000000e+00)) ((1.420403e-15 -9.191178e-18 -3.184405e+01) (5.433343e-20 -9.877151e-18 -9.346018e-02) (0.000000e+00 0.000000e+00 0.000000e+00))
350          	((5.877243e+00 2.380492e+02 3.238620e-18) (1.596675e+00 -1.824152e-02 7.637266e-20) (0.000000e+00 0.000000e+00 0.000000e+00)) ((1.426181e-15 -8.908113e-18 -3.196806e+01) (5.497321e-20 -9.872039e-18 -9.383378e-02) (0.000000e+00 0.000000e+00 0.000000e+00))
360          	((5.855941e+00 2.389320e+02 3.190759e-18) (1.597150e+00 -1.833393e-02 7.704760e-20) (0.000000e+00 0.000000e+00 0.000000e+00)) ((1.431354e-15 -8.641035e-18 -3.207962e+01) (5.567904e-20 -9.867623e-18 -9.415109e-02) (0.000000e+00 0.000000e+00 0.000000e+00))
370          	((5.833933e+00 2.397073e+02 3.145930e-18) (1.597468e+00 -1.837870e-02 7.766690e-20) (0.000000e+00 0.000000e+00 0.000000e+00)) ((1.435871e-15 -8.384542e-18 -3.218141e+01) (5.639418e-20 -9.863912e-18 -9.441815e-02) (0.000000e+00 0.000000e+00 0.000000e+00))
380          	((5.810524e+00 2.403726e+02 3.103841e-18) (1.597681e+00 -1.838936e-02 7.822811e-20) (0.000000e+00 0.000000e+00 0.000000e+00)) ((1.439721e-15 -8.136286e-18 -3.227503e+01) (5.708182e-20 -9.860859e-18 -9.464500e-02) (0.000000e+00 0.000000e+00 0.000000e+00))
390          	((5.786317e+00 2.409330e+02 3.064916e-18) (1.597832e+00 -1.838282e-02 7.872876e-20) (0.000000e+00 0.000000e+00 0.000000e+00)) ((1.442941e-15 -7.900142e-18 -3.236052e+01) (5.770987e-20 -9.858359e-18 -9.483957e-02) (0.000000e+00 0.000000e+00 0.000000e+00))
400          	((5.762669e+00 2.414010e+02 3.029863e-18) (1.597953e+00 -1.837299e-02 7.916662e-20) (0.000000e+00 0.000000e+00 0.000000e+00)) ((1.445614e-15 -7.682815e-18 -3.243719e+01) (5.825447e-20 -9.856268e-18 -9.500834e-02) (0.000000e+00 0.000000e+00 0.000000e+00))
410          	((5.740910e+00 2.417927e+02 2.999164e-18) (1.598068e+00 -1.836860e-02 7.954318e-20) (0.000000e+00 0.000000e+00 0.000000e+00)) ((1.447841e-15 -7.489768e-18 -3.250460e+01) (5.870676e-20 -9.854467e-18 -9.515647e-02) (0.000000e+00 0.000000e+00 0.000000e+00))
420          	((5.721868e+00 2.421245e+02 2.972847e-18) (1.598186e+00 -1.837328e-02 7.986388e-20) (0.000000e+00 0.000000e+00 0.000000e+00)) ((1.449723e-15 -7.323190e-18 -3.256299e+01) (5.907084e-20 -9.852876e-18 -9.528779e-02) (0.000000e+00 0.000000e+00 0.000000e+00))
430          	((5.705758e+00 2.424104e+02 2.950527e-18) (1.598311e+00 -1.838698e-02 8.013678e-20) (0.000000e+00 0.000000e+00 0.000000e+00)) ((1.451346e-15 -7.181942e-18 -3.261321e+01) (5.935907e-20 -9.851448e-18 -9.540509e-02) (0.000000e+00 0.000000e+00 0.000000e+00))
440          	((5.692351e+00 2.426611e+02 2.931590e-18) (1.598440e+00 -1.840767e-02 8.037067e-20) (0.000000e+00 0.000000e+00 0.000000e+00)) ((1.452771e-15 -7.062749e-18 -3.265644e+01) (5.958721e-20 -9.850156e-18 -9.551029e-02) (0.000000e+00 0.000000e+00 0.000000e+00))
450          	((5.681202e+00 2.428839e+02 2.915386e-18) (1.598571e+00 -1.843273e-02 8.057351e-20) (0.000000e+00 0.000000e+00 0.000000e+00)) ((1.454042e-15 -6.961632e-18 -3.269388e+01) (5.977055e-20 -9.848982e-18 -9.560473e-02) (0.000000e+00 0.000000e+00 0.000000e+00))
460          	((5.671856e+00 2.430838e+02 2.901362e-18) (1.598697e+00 -1.845960e-02 8.075155e-20) (0.000000e+00 0.000000e+00 0.000000e+00)) ((1.455185e-15 -6.874973e-18 -3.272654e+01) (5.992184e-20 -9.847917e-18 -9.568942e-02) (0.000000e+00 0.000000e+00 0.000000e+00))
470          	((5.663936e+00 2.432640e+02 2.889097e-18) (1.598815e+00 -1.848621e-02 8.090935e-20) (0.000000e+00 0.000000e+00 0.000000e+00)) ((1.456218e-15 -6.799919e-18 -3.275519e+01) (6.005093e-20 -9.846950e-18 -9.576513e-02) (0.000000e+00 0.000000e+00 0.000000e+00))
480          	((5.657153e+00 2.434267e+02 2.878286e-18) (1.598921e+00 -1.851101e-02 8.105015e-20) (0.000000e+00 0.000000e+00 0.000000e+00)) ((1.457153e-15 -6.734326e-18 -3.278044e+01) (6.016472e-20 -9.846075e-18 -9.583253e-02) (0.000000e+00 0.000000e+00 0.000000e+00))
490          	((5.651278e+00 2.435735e+02 2.868697e-18) (1.599014e+00 -1.853303e-02 8.117628e-20) (0.000000e+00 0.000000e+00 0.000000e+00)) ((1.457997e-15 -6.676543e-18 -3.280275e+01) (6.026757e-20 -9.845284e-18 -9.589225e-02) (0.000000e+00 0.000000e+00 0.000000e+00))
500          	((5.646119e+00 2.437054e+02 2.860149e-18) (1.599093e+00 -1.855177e-02 8.128946e-20) (0.000000e+00 0.000000e+00 0.000000e+00)) ((1.458757e-15 -6.625247e-18 -3.282252e+01) (6.036262e-20 -9.844577e-18 -9.594496e-02) (0.000000e+00 0.000000e+00 0.000000e+00))
510          	((5.641524e+00 2.438233e+02 2.852500e-18) (1.599160e+00 -1.856717e-02 8.139100e-20) (0.000000e+00 0.000000e+00 0.000000e+00)) ((1.459436e-15 -6.579401e-18 -3.284009e+01) (6.045115e-20 -9.843950e-18 -9.599134e-02) (0.000000e+00 0.000000e+00 0.000000e+00))
520          	((5.637379e+00 2.439282e+02 2.845641e-18) (1.599217e+00 -1.857953e-02 8.148195e-20) (0.000000e+00 0.000000e+00 0.000000e+00)) ((1.460040e-15 -6.538229e-18 -3.285575e+01) (6.053344e-20 -9.843399e-18 -9.603205e-02) (0.000000e+00 0.000000e+00 0.000000e+00))
530          	((5.633615e+00 2.440208e+02 2.839492e-18) (1.599264e+00 -1.858934e-02 8.156317e-20) (0.000000e+00 0.000000e+00 0.000000e+00)) ((1.460574e-15 -6.501187e-18 -3.286969e+01) (6.060929e-20 -9.842916e-18 -9.606777e-02) (0.000000e+00 0.000000e+00 0.000000e+00))
540          	((5.630190e+00 2.441024e+02 2.833992e-18) (1.599304e+00 -1.859718e-02 8.163540e-20) (0.000000e+00 0.000000e+00 0.000000e+00)) ((1.461042e-15 -6.467908e-18 -3.288210e+01) (6.067833e-20 -9.842495e-18 -9.609909e-02) (0.000000e+00 0.000000e+00 0.000000e+00))
550          	((5.627089e+00 2.441738e+02 2.829093e-18) (1.599337e+00 -1.860358e-02 8.169932e-20) (0.000000e+00 0.000000e+00 0.000000e+00)) ((1.461453e-15 -6.438133e-18 -3.289313e+01) (6.074031e-20 -9.842127e-18 -9.612660e-02) (0.000000e+00 0.000000e+00 0.000000e+00))
560          	((5.624299e+00 2.442364e+02 2.824751e-18) (1.599367e+00 -1.860897e-02 8.175536e-20) (0.000000e+00 0.000000e+00 0.000000e+00)) ((1.461811e-15 -6.411629e-18 -3.290288e+01) (6.079493e-20 -9.841806e-18 -9.615079e-02) (0.000000e+00 0.000000e+00 0.000000e+00))
570          	((5.621810e+00 2.442911e+02 2.820918e-18) (1.599392e+00 -1.861370e-02 8.180461e-20) (0.000000e+00 0.000000e+00 0.000000e+00)) ((1.462125e-15 -6.388161e-18 -3.291150e+01) (6.084268e-20 -9.841524e-18 -9.617209e-02) (0.000000e+00 0.000000e+00 0.000000e+00))
580          	((5.619605e+00 2.443390e+02 2.817544e-18) (1.599415e+00 -1.861797e-02 8.184785e-20) (0.000000e+00 0.000000e+00 0.000000e+00)) ((1.462400e-15 -6.367467e-18 -3.291910e+01) (6.088418e-20 -9.841276e-18 -9.619089e-02) (0.000000e+00 0.000000e+00 0.000000e+00))
590          	((5.617663e+00 2.443811e+02 2.814580e-18) (1.599435e+00 -1.862191e-02 8.188581e-20) (0.000000e+00 0.000000e+00 0.000000e+00)) ((1.462641e-15 -6.349273e-18 -3.292578e+01) (6.092011e-20 -9.841058e-18 -9.620750e-02) (0.000000e+00 0.000000e+00 0.000000e+00))
600          	((5.615959e+00 2.444182e+02 2.811978e-18) (1.599454e+00 -1.862558e-02 8.191915e-20) (0.000000e+00 0.000000e+00 0.000000e+00)) ((1.462853e-15 -6.333303e-18 -3.293167e+01) (6.095117e-20 -9.840866e-18 -9.622219e-02) (0.000000e+00 0.000000e+00 0.000000e+00))
610          	((5.614468e+00 2.444509e+02 2.809693e-18) (1.599471e+00 -1.862900e-02 8.194846e-20) (0.000000e+00 0.000000e+00 0.000000e+00)) ((1.463040e-15 -6.319293e-18 -3.293685e+01) (6.097807e-20 -9.840695e-18 -9.623520e-02) (0.000000e+00 0.000000e+00 0.000000e+00))
620          	((5.613164e+00 2.444798e+02 2.807685e-18) (1.599486e+00 -1.863215e-02 8.197427e-20) (0.000000e+00 0.000000e+00 0.000000e+00)) ((1.463206e-15 -6.307000e-18 -3.294141e+01) (6.100146e-20 -9.840544e-18 -9.624672e-02) (0.000000e+00 0.000000e+00 0.000000e+00))
630          	((5.612024e+00 2.445053e+02 2.805919e-18) (1.599500e+00 -1.863504e-02 8.199704e-20) (0.000000e+00 0.000000e+00 0.000000e+00)) ((1.463352e-15 -6.296202e-18 -3.294542e+01) (6.102189e-20 -9.840410e-18 -9.625692e-02) (0.000000e+00 0.000000e+00 0.000000e+00))
640          	((5.611025e+00 2.445280e+02 2.804362e-18) (1.599512e+00 -1.863764e-02 8.201716e-20) (0.000000e+00 0.000000e+00 0.000000e+00)) ((1.463482e-15 -6.286702e-18 -3.294897e+01) (6.103984e-20 -9.840292e-18 -9.626594e-02) (0.000000e+00 0.000000e+00 0.000000e+00))
650          	((5.610147e+00 2.445481e+02 2.802987e-18) (1.599523e+00 -1.863996e-02 8.203495e-20) (0.000000e+00 0.000000e+00 0.000000e+00)) ((1.463598e-15 -6.278330e-18 -3.295209e+01) (6.105570e-20 -9.840187e-18 -9.627392e-02) (0.000000e+00 0.000000e+00 0.000000e+00))
660          	((5.609375e+00 2.445659e+02 2.801773e-18) (1.599532e+00 -1.864201e-02 8.205070e-20) (0.000000e+00 0.000000e+00 0.000000e+00)) ((1.463700e-15 -6.270939e-18 -3.295485e+01) (6.106977e-20 -9.840094e-18 -9.628097e-02) (0.000000e+00 0.000000e+00 0.000000e+00))
670          	((5.608692e+00 2.445817e+02 2.800698e-18) (1.599541e+00 -1.864379e-02 8.206464e-20) (0.000000e+00 0.000000e+00 0.000000e+00)) ((1.463791e-15 -6.264402e-18 -3.295729e+01) (6.108228e-20 -9.840012e-18 -9.628719e-02) (0.000000e+00 0.000000e+00 0.000000e+00))
680          	((5.608088e+00 2.445956e+02 2.799747e-18) (1.599548e+00 -1.864535e-02 8.207699e-20) (0.000000e+00 0.000000e+00 0.000000e+00)) ((1.463871e-15 -6.258616e-18 -3.295945e+01) (6.109342e-20 -9.839939e-18 -9.629268e-02) (0.000000e+00 0.000000e+00 0.000000e+00))
690          	((5.607553e+00 2.446080e+02 2.798904e-18) (1.599554e+00 -1.864669e-02 8.208792e-20) (0.000000e+00 0.000000e+00 0.000000e+00)) ((1.463941e-15 -6.253492e-18 -3.296136e+01) (6.110334e-20 -9.839875e-18 -9.629752e-02) (0.000000e+00 0.000000e+00 0.000000e+00))
700          	((5.607078e+00 2.446189e+02 2.798159e-18) (1.599560e+00 -1.864786e-02 8.209758e-20) (0.000000e+00 0.000000e+00 0.000000e+00)) ((1.464004e-15 -6.248953e-18 -3.296305e+01) (6.111216e-20 -9.839819e-18 -9.630180e-02) (0.000000e+00 0.000000e+00 0.000000e+00))
710          	((5.606657e+00 2.446285e+02 2.797499e-18) (1.599565e+00 -1.864887e-02 8.210613e-20) (0.000000e+00 0.000000e+00 0.000000e+00)) ((1.464059e-15 -6.244934e-18 -3.296454e+01) (6.111999e-20 -9.839769e-18 -9.630556e-02) (0.000000e+00 0.000000e+00 0.000000e+00))
720          	((5.606283e+00 2.446369e+02 2.796916e-18) (1.599569e+00 -1.864976e-02 8.211368e-20) (0.000000e+00 0.000000e+00 0.000000e+00)) ((1.464108e-15 -6.241379e-18 -3.296586e+01) (6.112692e-20 -9.839726e-18 -9.630889e-02) (0.000000e+00 0.000000e+00 0.000000e+00))
730          	((5.605953e+00 2.446444e+02 2.796401e-18) (1.599573e+00 -1.865054e-02 8.212034e-20) (0.000000e+00 0.000000e+00 0.000000e+00)) ((1.464150e-15 -6.238236e-18 -3.296702e+01) (6.113304e-20 -9.839687e-18 -9.631182e-02) (0.000000e+00 0.000000e+00 0.000000e+00))
740          	((5.605660e+00 2.446510e+02 2.795946e-18) (1.599576e+00 -1.865123e-02 8.212622e-20) (0.000000e+00 0.000000e+00 0.000000e+00)) ((1.464188e-15 -6.235459e-18 -3.296805e+01) (6.113844e-20 -9.839653e-18 -9.631441e-02) (0.000000e+00 0.000000e+00 0.000000e+00))
750          	((5.605402e+00 2.446568e+02 2.795544e-18) (1.599579e+00 -1.865183e-02 8.213140e-20) (0.000000e+00 0.000000e+00 0.000000e+00)) ((1.464222e-15 -6.233008e-18 -3.296896e+01) (6.114319e-20 -9.839623e-18 -9.631670e-02) (0.000000e+00 0.000000e+00 0.000000e+00))
760          	((5.605174e+00 2.446619e+02 2.795190e-18) (1.599582e+00 -1.865238e-02 8.213597e-20) (0.000000e+00 0.000000e+00 0.000000e+00)) ((1.464251e-15 -6.230846e-18 -3.296976e+01) (6.114735e-20 -9.839597e-18 -9.631873e-02) (0.000000e+00 0.000000e+00 0.000000e+00))
770          	((5.604973e+00 2.446664e+02 2.794877e-18) (1.599584e+00 -1.865287e-02 8.214001e-20) (0.000000e+00 0.000000e+00 0.000000e+00)) ((1.464277e-15 -6.228938e-18 -3.297047e+01) (6.115099e-20 -9.839574e-18 -9.632052e-02) (0.000000e+00 0.000000e+00 0.000000e+00))
780          	((5.604796e+00 2.446704e+02 2.794602e-18) (1.599587e+00 -1.865331e-02 8.214357e-20) (0.000000e+00 0.000000e+00 0.000000e+00)) ((1.464300e-15 -6.227256e-18 -3.297109e+01) (6.115418e-20 -9.839553e-18 -9.632210e-02) (0.000000e+00 0.000000e+00 0.000000e+00))
790          	((5.604639e+00 2.446740e+02 2.794358e-18) (1.599588e+00 -1.865371e-02 8.214672e-20) (0.000000e+00 0.000000e+00 0.000000e+00)) ((1.464320e-15 -6.225771e-18 -3.297164e+01) (6.115700e-20 -9.839535e-18 -9.632350e-02) (0.000000e+00 0.000000e+00 0.000000e+00))
800          	((5.604502e+00 2.446771e+02 2.794144e-18) (1.599590e+00 -1.865405e-02 8.214950e-20) (0.000000e+00 0.000000e+00 0.000000e+00)) ((1.464338e-15 -6.224462e-18 -3.297213e+01) (6.115949e-20 -9.839519e-18 -9.632473e-02) (0.000000e+00 0.000000e+00 0.000000e+00))
810          	((5.604380e+00 2.446798e+02 2.793954e-18) (1.599592e+00 -1.865436e-02 8.215195e-20) (0.000000e+00 0.000000e+00 0.000000e+00)) ((1.464354e-15 -6.223307e-18 -3.297256e+01) (6.116170e-20 -9.839505e-18 -9.632582e-02) (0.000000e+00 0.000000e+00 0.000000e+00))
820          	((5.604273e+00 2.446823e+02 2.793787e-18) (1.599593e+00 -1.865463e-02 8.215412e-20) (0.000000e+00 0.000000e+00 0.000000e+00)) ((1.464368e-15 -6.222286e-18 -3.297294e+01) (6.116364e-20 -9.839492e-18 -9.632678e-02) (0.000000e+00 0.000000e+00 0.000000e+00))
830          	((5.604178e+00 2.446844e+02 2.793639e-18) (1.599594e+00 -1.865487e-02 8.215603e-20) (0.000000e+00 0.000000e+00 0.000000e+00)) ((1.464380e-15 -6.221385e-18 -3.297327e+01) (6.116534e-20 -9.839481e-18 -9.632764e-02) (0.000000e+00 0.000000e+00 0.000000e+00))
840          	((5.604095e+00 2.446863e+02 2.793508e-18) (1.599595e+00 -1.865509e-02 8.215772e-20) (0.000000e+00 0.000000e+00 0.000000e+00)) ((1.464391e-15 -6.220590e-18 -3.297357e+01) (6.116683e-20 -9.839472e-18 -9.632839e-02) (0.000000e+00 0.000000e+00 0.000000e+00))
850          	((5.604021e+00 2.446880e+02 2.793393e-18) (1.599596e+00 -1.865528e-02 8.215921e-20) (0.000000e+00 0.000000e+00 0.000000e+00)) ((1.464401e-15 -6.219887e-18 -3.297383e+01) (6.116815e-20 -9.839463e-18 -9.632906e-02) (0.000000e+00 0.000000e+00 0.000000e+00))
860          	((5.603956e+00 2.446895e+02 2.793291e-18) (1.599597e+00 -1.865545e-02 8.216053e-20) (0.000000e+00 0.000000e+00 0.000000e+00)) ((1.464409e-15 -6.219266e-18 -3.297406e+01) (6.116933e-20 -9.839455e-18 -9.632964e-02) (0.000000e+00 0.000000e+00 0.000000e+00))
870          	((5.603899e+00 2.446908e+02 2.793201e-18) (1.599597e+00 -1.865560e-02 8.216170e-20) (0.000000e+00 0.000000e+00 0.000000e+00)) ((1.464417e-15 -6.218717e-18 -3.297426e+01) (6.117038e-20 -9.839449e-18 -9.633016e-02) (0.000000e+00 0.000000e+00 0.000000e+00))
880          	((5.603848e+00 2.446919e+02 2.793122e-18) (1.599598e+00 -1.865572e-02 8.216273e-20) (0.000000e+00 0.000000e+00 0.000000e+00)) ((1.464423e-15 -6.218233e-18 -3.297444e+01) (6.117131e-20 -9.839443e-18 -9.633061e-02) (0.000000e+00 0.000000e+00 0.000000e+00))
890          	((5.603802e+00 2.446930e+02 2.793051e-18) (1.599599e+00 -1.865583e-02 8.216364e-20) (0.000000e+00 0.000000e+00 0.000000e+00)) ((1.464429e-15 -6.217801e-18 -3.297460e+01) (6.117213e-20 -9.839437e-18 -9.633101e-02) (0.000000e+00 0.000000e+00 0.000000e+00))
900          	((5.603764e+00 2.446939e+02 2.792990e-18) (1.599599e+00 -1.865593e-02 8.216443e-20) (0.000000e+00 0.000000e+00 0.000000e+00)) ((1.464434e-15 -6.217429e-18 -3.297474e+01) (6.117284e-20 -9.839433e-18 -9.633137e-02) (0.000000e+00 0.000000e+00 0.000000e+00))
910          	((5.603728e+00 2.446947e+02 2.792935e-18) (1.599600e+00 -1.865603e-02 8.216514e-20) (0.000000e+00 0.000000e+00 0.000000e+00)) ((1.464439e-15 -6.217094e-18 -3.297486e+01) (6.117345e-20 -9.839429e-18 -9.633169e-02) (0.000000e+00 0.000000e+00 0.000000e+00))
920          	((5.603698e+00 2.446954e+02 2.792887e-18) (1.599600e+00 -1.865611e-02 8.216576e-20) (0.000000e+00 0.000000e+00 0.000000e+00)) ((1.464443e-15 -6.216806e-18 -3.297497e+01) (6.117398e-20 -9.839426e-18 -9.633197e-02) (0.000000e+00 0.000000e+00 0.000000e+00))
930          	((5.603671e+00 2.446960e+02 2.792845e-18) (1.599600e+00 -1.865619e-02 8.216632e-20) (0.000000e+00 0.000000e+00 0.000000e+00)) ((1.464446e-15 -6.216546e-18 -3.297507e+01) (6.117445e-20 -9.839422e-18 -9.633222e-02) (0.000000e+00 0.000000e+00 0.000000e+00))
940          	((5.603647e+00 2.446965e+02 2.792807e-18) (1.599601e+00 -1.865625e-02 8.216680e-20) (0.000000e+00 0.000000e+00 0.000000e+00)) ((1.464449e-15 -6.216315e-18 -3.297515e+01) (6.117489e-20 -9.839420e-18 -9.633244e-02) (0.000000e+00 0.000000e+00 0.000000e+00))
950          	((5.603625e+00 2.446970e+02 2.792773e-18) (1.599601e+00 -1.865631e-02 8.216725e-20) (0.000000e+00 0.000000e+00 0.000000e+00)) ((1.464452e-15 -6.216108e-18 -3.297523e+01) (6.117528e-20 -9.839417e-18 -9.633262e-02) (0.000000e+00 0.000000e+00 0.000000e+00))
960          	((5.603606e+00 2.446975e+02 2.792744e-18) (1.599601e+00 -1.865635e-02 8.216762e-20) (0.000000e+00 0.000000e+00 0.000000e+00)) ((1.464455e-15 -6.215931e-18 -3.297530e+01) (6.117564e-20 -9.839415e-18 -9.633279e-02) (0.000000e+00 0.000000e+00 0.000000e+00))
970          	((5.603588e+00 2.446978e+02 2.792717e-18) (1.599601e+00 -1.865639e-02 8.216796e-20) (0.000000e+00 0.000000e+00 0.000000e+00)) ((1.464457e-15 -6.215763e-18 -3.297536e+01) (6.117595e-20 -9.839413e-18 -9.633293e-02) (0.000000e+00 0.000000e+00 0.000000e+00))
980          	((5.603576e+00 2.446982e+02 2.792696e-18) (1.599601e+00 -1.865642e-02 8.216825e-20) (0.000000e+00 0.000000e+00 0.000000e+00)) ((1.464459e-15 -6.215638e-18 -3.297541e+01) (6.117624e-20 -9.839411e-18 -9.633306e-02) (0.000000e+00 0.000000e+00 0.000000e+00))
990          	((5.603563e+00 2.446985e+02 2.792675e-18) (1.599601e+00 -1.865645e-02 8.216851e-20) (0.000000e+00 0.000000e+00 0.000000e+00)) ((1.464461e-15 -6.215514e-18 -3.297545e+01) (6.117649e-20 -9.839409e-18 -9.633317e-02) (0.000000e+00 0.000000e+00 0.000000e+00))
1000         	((5.603551e+00 2.446987e+02 2.792658e-18) (1.599602e+00 -1.865647e-02 8.216874e-20) (0.000000e+00 0.000000e+00 0.000000e+00)) ((1.464462e-15 -6.215406e-18 -3.297549e+01) (6.117671e-20 -9.839408e-18 -9.633327e-02) (0.000000e+00 0.000000e+00 0.000000e+00))
1010         	((5.603541e+00 2.446990e+02 2.792642e-18) (1.599602e+00 -1.865649e-02 8.216894e-20) (0.000000e+00 0.000000e+00 0.000000e+00)) ((1.464463e-15 -6.215309e-18 -3.297553e+01) (6.117689e-20 -9.839407e-18 -9.633337e-02) (0.000000e+00 0.000000e+00 0.000000e+00))
1020         	((5.603532e+00 2.446992e+02 2.792628e-18) (1.599602e+00 -1.865652e-02 8.216912e-20) (0.000000e+00 0.000000e+00 0.000000e+00)) ((1.464465e-15 -6.215224e-18 -3.297556e+01) (6.117705e-20 -9.839406e-18 -9.633345e-02) (0.000000e+00 0.000000e+00 0.000000e+00))
1030         	((5.603524e+00 2.446993e+02 2.792615e-18) (1.599602e+00 -1.865654e-02 8.216928e-20) (0.000000e+00 0.000000e+00 0.000000e+00)) ((1.464466e-15 -6.215148e-18 -3.297559e+01) (6.117719e-20 -9.839405e-18 -9.633352e-02) (0.000000e+00 0.000000e+00 0.000000e+00))
1040         	((5.603518e+00 2.446995e+02 2.792605e-18) (1.599602e+00 -1.865656e-02 8.216938e-20) (0.000000e+00 0.000000e+00 0.000000e+00)) ((1.464466e-15 -6.215088e-18 -3.297561e+01) (6.117730e-20 -9.839404e-18 -9.633359e-02) (0.000000e+00 0.000000e+00 0.000000e+00))
1050         	((5.603512e+00 2.446996e+02 2.792596e-18) (1.599602e+00 -1.865658e-02 8.216953e-20) (0.000000e+00 0.000000e+00 0.000000e+00)) ((1.464467e-15 -6.215031e-18 -3.297563e+01) (6.117736e-20 -9.839404e-18 -9.633364e-02) (0.000000e+00 0.000000e+00 0.000000e+00))
1060         	((5.603508e+00 2.446997e+02 2.792589e-18) (1.599602e+00 -1.865660e-02 8.216963e-20) (0.000000e+00 0.000000e+00 0.000000e+00)) ((1.464468e-15 -6.214987e-18 -3.297565e+01) (6.117744e-20 -9.839403e-18 -9.633369e-02) (0.000000e+00 0.000000e+00 0.000000e+00))
1070         	((5.603503e+00 2.446998e+02 2.792581e-18) (1.599602e+00 -1.865661e-02 8.216973e-20) (0.000000e+00 0.000000e+00 0.000000e+00)) ((1.464468e-15 -6.214942e-18 -3.297566e+01) (6.117751e-20 -9.839402e-18 -9.633373e-02) (0.000000e+00 0.000000e+00 0.000000e+00))
1080         	((5.603498e+00 2.446999e+02 2.792574e-18) (1.599602e+00 -1.865662e-02 8.216979e-20) (0.000000e+00 0.000000e+00 0.000000e+00)) ((1.464469e-15 -6.214895e-18 -3.297568e+01) (6.117759e-20 -9.839402e-18 -9.633377e-02) (0.000000e+00 0.000000e+00 0.000000e+00))
1090         	((5.603493e+00 2.447000e+02 2.792567e-18) (1.599602e+00 -1.865663e-02 8.216989e-20) (0.000000e+00 0.000000e+00 0.000000e+00)) ((1.464470e-15 -6.214854e-18 -3.297570e+01) (6.117764e-20 -9.839402e-18 -9.633380e-02) (0.000000e+00 0.000000e+00 0.000000e+00))
1100         	((5.603492e+00 2.447001e+02 2.792564e-18) (1.599602e+00 -1.865665e-02 8.216995e-20) (0.000000e+00 0.000000e+00 0.000000e+00)) ((1.464470e-15 -6.214835e-18 -3.297570e+01) (6.117767e-20 -9.839401e-18 -9.633383e-02) (0.000000e+00 0.000000e+00 0.000000e+00))