/*--------------------------------*- C++ -*----------------------------------*\
| =========                 |                                                 |
| \\      /  F ield         | OpenFOAM: The Open Source CFD Toolbox           |
|  \\    /   O peration     | Version:  5.0                                   |
|   \\  /    A nd           | Web:      www.OpenFOAM.org                      |
|    \\/     M anipulation  |                                                 |
\*---------------------------------------------------------------------------*/
FoamFile
{
    version     2.0;
    format      ascii;
    class       volScalarField;
    location    "0";
    object      nut;
}
// * * * * * * * * * * * * * * * * * * * * * * * * * * * * * * * * * * * * * //

dimensions      [0 2 -1 0 0 0 0];

internalField   nonuniform List<scalar> 
7200
(
-2.66158e-07
-5.00495e-07
-7.45713e-07
-6.86025e-07
-6.90385e-07
-4.44043e-07
3.77988e-07
1.10218e-06
6.619e-07
2.10976e-07
4.90488e-08
5.61182e-08
3.19183e-07
-2.269e-07
2.24488e-07
8.60654e-07
7.4409e-07
6.65213e-08
2.21772e-07
5.31939e-07
-3.62296e-07
-5.52285e-07
-8.44867e-07
-8.6003e-07
-8.90175e-07
-6.42338e-07
3.87215e-07
1.53398e-06
1.13126e-06
3.48854e-07
4.46114e-08
-9.95809e-08
3.93713e-07
-2.59121e-07
7.16806e-08
9.15311e-07
8.96472e-07
-1.64547e-07
1.6645e-07
5.17683e-07
8.94186e-07
1.3608e-07
6.598e-07
5.46896e-08
-1.18583e-06
-6.42265e-07
5.19694e-07
2.09666e-06
1.66264e-06
1.65361e-06
2.1134e-07
-1.32531e-07
4.13374e-07
-3.86323e-07
9.63357e-07
1.85643e-06
1.08809e-06
-1.84584e-07
-1.07386e-07
5.79723e-08
5.70263e-06
7.292e-06
2.32455e-06
5.08863e-06
1.80294e-06
2.24154e-06
1.51921e-06
2.95913e-06
4.02877e-06
3.37915e-06
3.24469e-06
3.02693e-06
1.22558e-06
9.18213e-07
4.16838e-08
6.70663e-06
8.12119e-06
7.17861e-07
-3.10074e-07
1.35483e-06
9.81323e-06
1.06947e-05
3.95852e-06
5.05789e-06
3.37618e-06
2.82513e-06
6.78832e-06
8.53427e-06
8.26569e-06
6.10996e-06
2.49831e-06
4.48253e-06
6.41556e-06
5.65001e-06
-1.61686e-06
7.19867e-06
7.18461e-06
1.1489e-06
3.95048e-07
3.30113e-07
5.50816e-06
1.15967e-05
-1.3632e-06
-5.29608e-06
1.59346e-06
6.74799e-06
4.53466e-06
4.23261e-06
4.76711e-06
1.08271e-05
6.65926e-07
-3.45332e-08
1.04487e-05
3.83904e-06
3.4677e-07
1.46455e-07
1.89227e-06
8.68731e-07
1.97414e-06
1.52942e-06
-5.65584e-06
1.42706e-05
7.60939e-06
-8.75259e-06
-4.11554e-06
4.71614e-06
3.23054e-06
8.0656e-06
3.03369e-06
5.81419e-06
9.30596e-06
1.80638e-06
4.88866e-06
9.27218e-06
4.22012e-06
5.35299e-07
2.94982e-06
2.0556e-06
1.94236e-06
3.2446e-06
-8.73902e-06
8.01795e-06
1.40056e-05
1.00435e-06
-4.86166e-06
6.84959e-06
7.58708e-06
1.26617e-05
4.82063e-06
-6.66176e-06
7.22394e-06
2.64437e-05
2.4591e-05
1.55372e-05
5.3411e-06
1.18829e-05
8.92376e-06
4.85501e-06
1.97071e-06
-7.7349e-06
-6.14501e-06
-1.6187e-06
3.0549e-06
1.40895e-05
1.47308e-05
1.2323e-05
1.13226e-05
5.21179e-06
5.12722e-06
-4.62141e-07
-6.15638e-06
-3.0391e-08
2.35707e-05
2.04673e-05
-5.62063e-07
4.83214e-06
1.30557e-05
1.35038e-05
1.02369e-05
-6.782e-07
6.26767e-06
3.14041e-06
3.36532e-07
4.88968e-06
6.18682e-06
4.80994e-06
-1.14702e-07
-1.62904e-06
1.48355e-06
3.77156e-06
6.61948e-07
-2.98322e-06
2.99205e-06
1.18554e-05
3.5844e-06
-3.97931e-06
6.29181e-06
7.67633e-06
7.48429e-06
3.6069e-06
7.49564e-06
4.30399e-06
1.90074e-06
2.31075e-06
2.9813e-06
1.97215e-06
3.65188e-06
5.64609e-06
-7.40008e-07
-8.87779e-07
-9.18844e-07
-6.89434e-07
8.47684e-07
4.19884e-06
8.29655e-07
3.53156e-06
6.1913e-06
2.73269e-06
4.30251e-06
3.26057e-06
9.57036e-06
5.88871e-06
1.13562e-06
2.50943e-07
1.90185e-06
6.72262e-06
1.07958e-05
5.92982e-06
1.66273e-06
1.3384e-06
3.14909e-06
2.81313e-06
1.71756e-06
2.52911e-06
-5.78346e-07
3.57201e-06
9.38691e-06
7.35381e-06
4.03283e-06
3.23319e-06
2.12733e-07
1.18959e-06
1.2651e-06
7.20036e-07
3.3725e-07
3.61451e-07
7.19516e-07
2.63609e-07
-2.30198e-08
-6.71777e-08
8.29582e-08
2.55078e-07
1.39559e-07
-2.88786e-08
-2.75866e-07
3.55741e-09
1.06337e-07
6.70901e-07
6.0225e-07
6.90223e-07
5.65195e-07
1.89198e-06
1.5848e-06
4.80811e-07
-1.00744e-07
-1.06138e-07
2.60483e-07
1.98047e-07
-4.14356e-07
-4.31353e-07
5.00973e-07
4.56449e-07
1.19021e-06
9.04212e-07
-2.64632e-07
-1.49323e-07
-2.52556e-07
-9.98727e-09
-2.26768e-07
7.69686e-07
-2.42152e-06
4.06955e-07
2.64343e-06
6.35199e-07
-9.56892e-08
-5.1752e-07
-1.90902e-07
3.58854e-07
1.03558e-07
2.52944e-07
1.0343e-06
1.53766e-06
1.48534e-06
1.52832e-06
1.50476e-06
1.91623e-07
7.68713e-07
8.54722e-07
-9.07381e-08
1.42711e-07
-3.55358e-06
-7.79346e-07
2.8977e-07
2.56622e-06
3.94004e-06
1.07577e-06
-3.06075e-07
3.4859e-06
7.20374e-07
6.01236e-07
4.44236e-07
7.05033e-06
5.46214e-06
1.64012e-06
3.54247e-07
1.57583e-06
5.07583e-06
1.02047e-05
2.65898e-06
6.96899e-07
9.16184e-08
-5.89059e-07
-7.18188e-06
4.42768e-06
6.82453e-06
7.59043e-06
5.36703e-06
4.90551e-06
2.57192e-06
2.56689e-06
3.49534e-06
1.72517e-06
1.02282e-06
5.00913e-07
1.51268e-06
-3.8804e-06
-2.10905e-06
7.07738e-06
1.862e-06
3.25845e-06
6.25394e-06
4.6185e-06
-5.78801e-06
1.70124e-06
4.35002e-06
1.4054e-05
1.0754e-05
6.65945e-06
4.5103e-06
8.84689e-06
-4.75415e-07
-6.02079e-06
5.16935e-06
3.86187e-06
6.4622e-06
-9.84621e-06
-7.02548e-06
3.14824e-06
6.66588e-06
4.82557e-06
-4.04195e-07
6.95677e-07
-5.42503e-07
-7.01656e-06
3.80737e-06
1.29192e-06
8.39634e-06
1.24428e-06
6.47201e-06
4.95444e-06
-5.94869e-06
-7.76378e-06
4.40279e-06
4.78661e-06
8.92598e-06
-4.6252e-06
-5.71601e-06
6.44263e-06
4.03592e-06
5.02018e-06
-2.31122e-06
-2.13134e-06
-3.82476e-06
-1.39444e-06
-5.98389e-06
1.49162e-05
1.4696e-05
4.17381e-06
6.62468e-06
3.28544e-06
7.29448e-06
8.35956e-06
7.01825e-06
4.07084e-06
-1.63067e-06
3.73337e-07
1.16247e-05
1.15818e-05
1.21758e-05
9.35948e-07
-1.42941e-06
-2.56765e-06
2.03433e-06
1.38451e-05
-7.96354e-07
1.01227e-05
1.527e-05
1.16204e-05
1.21726e-05
9.44261e-07
-1.7082e-06
3.57964e-06
9.00199e-06
7.15077e-07
-3.22245e-06
1.41285e-06
5.4883e-06
1.50007e-05
1.27163e-05
6.81566e-06
3.29877e-06
4.25362e-06
7.74037e-06
8.7734e-06
9.24586e-06
7.37801e-06
6.8628e-06
4.72507e-06
-9.30612e-08
9.41248e-06
7.04438e-06
5.45461e-06
1.78913e-06
-4.47178e-06
-4.39929e-06
-3.65795e-06
7.67219e-06
8.00982e-06
7.06293e-06
7.32891e-06
2.07961e-06
-5.60271e-07
-1.13786e-06
-1.10283e-06
1.57629e-06
1.40697e-06
4.82415e-06
5.50495e-06
5.56496e-06
8.62949e-06
6.81047e-06
5.36195e-06
-2.95538e-07
-6.00044e-07
-4.35824e-06
1.09306e-06
4.10579e-06
3.67889e-06
2.30968e-06
1.33507e-07
-1.96076e-06
-5.15524e-07
2.85891e-06
4.52948e-06
2.21536e-06
4.19778e-06
7.03861e-06
1.73254e-06
4.48666e-06
3.28931e-06
2.91205e-06
4.0986e-06
7.81541e-06
7.29416e-06
1.0388e-06
-2.22408e-06
3.89038e-06
5.14792e-06
2.82053e-06
2.66905e-06
3.47936e-07
8.19663e-07
1.19443e-06
4.45341e-07
2.6616e-07
-2.26543e-07
-7.29174e-07
-2.14628e-07
6.1369e-07
7.73633e-07
4.09305e-07
2.13728e-07
2.49403e-07
3.83451e-07
8.51832e-07
7.84466e-07
8.0505e-07
8.78317e-07
4.09419e-07
3.28945e-07
3.77554e-07
1.07904e-06
1.92889e-06
6.82836e-07
5.7726e-07
-1.94933e-07
-8.77426e-07
-2.87838e-07
1.06636e-06
1.03966e-06
5.64161e-07
2.26297e-07
2.38716e-07
5.70388e-07
1.15755e-06
8.22385e-07
8.2159e-07
1.22606e-06
6.38932e-07
3.01276e-07
-1.2222e-06
-2.6907e-06
8.23394e-07
3.25333e-06
2.20659e-06
8.32182e-07
-5.1726e-08
-1.82586e-07
1.31463e-06
1.73302e-06
7.48314e-07
3.2308e-07
9.19171e-08
2.07389e-09
1.40667e-06
7.04124e-07
1.63551e-07
3.23028e-07
1.3077e-06
-3.15689e-08
1.90505e-07
-2.42335e-06
-5.70683e-06
7.00791e-06
3.84256e-06
1.81694e-06
1.42973e-06
1.12439e-06
7.6289e-07
-2.57775e-07
1.01445e-06
2.07166e-06
1.54249e-06
-1.68971e-06
7.06162e-06
2.25607e-06
5.35792e-07
-6.0953e-06
5.88928e-07
4.0452e-06
-3.35963e-07
-1.52502e-06
-9.77835e-06
1.29016e-05
4.92944e-06
3.36052e-06
1.92843e-06
2.42453e-06
4.99768e-07
-1.09706e-06
3.02777e-06
4.45946e-06
5.15199e-06
5.69876e-06
7.8907e-06
7.44855e-07
-1.08027e-07
-2.70332e-06
1.55171e-06
2.1562e-06
-5.09961e-06
4.01931e-06
5.61623e-06
4.75348e-06
2.87615e-06
5.89859e-06
3.41235e-06
1.14759e-06
2.88722e-06
-1.03624e-06
2.63881e-06
3.40045e-06
8.21699e-06
6.62125e-06
8.06412e-06
1.1668e-06
-4.7839e-07
2.55117e-06
3.70882e-06
-1.0592e-06
-1.80575e-06
2.60248e-07
2.89523e-06
1.95349e-06
3.1441e-06
3.8664e-06
3.62297e-06
5.62129e-06
5.27999e-06
4.18462e-06
2.00427e-06
1.21097e-06
2.72808e-06
7.0782e-06
6.52583e-06
3.88381e-06
5.26647e-06
8.50373e-06
7.7941e-06
-4.21406e-07
6.47981e-06
-6.44138e-06
-1.71769e-06
1.00124e-06
2.50081e-06
1.14504e-05
3.09931e-06
3.54485e-06
2.71462e-06
4.9941e-06
1.08478e-05
6.54791e-06
-1.00062e-05
4.2722e-07
-1.12439e-06
2.35386e-07
2.09117e-06
1.09063e-05
7.81289e-06
-1.68995e-06
6.07533e-06
5.80884e-06
7.51219e-06
8.9859e-06
4.99695e-06
8.00856e-06
7.15507e-06
4.43907e-06
8.26536e-06
1.60531e-06
1.96897e-06
-6.31628e-07
-3.9521e-06
-2.85444e-06
-1.61719e-06
2.19186e-06
1.26339e-06
8.11353e-06
7.9742e-06
1.50323e-06
3.5884e-06
6.13289e-06
6.99139e-06
1.30787e-05
8.50331e-06
3.25783e-06
2.56584e-07
5.53951e-06
6.49951e-06
-5.32537e-07
1.46088e-06
3.00471e-06
6.47759e-06
4.65965e-06
-1.68134e-06
-1.4368e-06
3.27635e-06
5.24833e-06
1.1515e-06
-2.14231e-06
-9.91934e-07
-4.1205e-07
4.08207e-06
4.5045e-06
4.20264e-06
2.42425e-06
1.22184e-06
2.19769e-06
6.07025e-06
5.91985e-06
3.3043e-06
2.32937e-06
4.88885e-06
1.0939e-06
2.6306e-06
4.34995e-06
2.19376e-06
4.1287e-06
-8.56523e-07
-3.19573e-06
-2.70049e-07
3.13392e-07
3.07257e-06
4.08426e-06
3.32495e-06
4.85507e-06
2.55079e-06
2.9575e-06
1.43444e-06
-5.41856e-07
-3.10909e-06
6.83234e-06
4.67278e-06
2.50388e-06
2.27863e-06
-1.13515e-06
1.7457e-06
3.14244e-06
7.54606e-07
-8.44362e-07
6.3194e-07
1.56901e-06
1.96092e-06
5.8635e-07
-3.38891e-07
1.40414e-07
2.62955e-07
-3.78708e-07
1.01272e-07
5.12694e-07
3.04593e-07
3.51052e-07
4.93128e-07
7.81643e-07
7.38974e-07
3.72927e-07
5.95801e-07
6.99378e-07
6.68643e-07
8.68188e-07
9.31389e-07
1.65815e-06
3.28715e-06
1.27446e-06
-3.59716e-07
1.07106e-07
4.13996e-07
-4.39283e-07
4.18757e-07
6.69134e-07
3.22573e-07
2.47755e-07
4.54232e-07
8.43211e-07
1.00132e-06
5.6625e-07
5.47325e-07
7.79147e-07
7.73253e-07
9.93308e-07
2.89785e-06
-7.34606e-06
4.63034e-06
3.19415e-06
3.02755e-08
3.63024e-07
1.05081e-06
2.35197e-07
2.85867e-07
5.30801e-07
1.62935e-07
-1.0256e-07
-4.77719e-07
7.647e-07
1.57828e-06
1.43922e-06
3.09392e-07
1.1916e-06
7.22184e-07
4.59979e-08
7.05327e-06
-5.65305e-06
-1.41238e-05
1.16046e-05
6.43814e-06
5.00602e-07
1.27644e-06
1.41874e-06
1.74323e-06
-1.34287e-06
1.19653e-06
1.7572e-06
-1.84545e-06
-2.57071e-06
6.64609e-06
2.92056e-06
2.82404e-06
2.56935e-06
3.89804e-06
2.68533e-06
-2.66835e-06
-1.73067e-06
-1.83538e-05
1.66958e-05
7.20458e-06
5.72998e-06
1.24309e-06
3.35827e-06
2.35537e-06
3.94765e-07
2.51415e-06
2.61866e-06
3.23861e-06
1.94032e-06
5.07873e-06
3.08916e-06
-3.95908e-08
-9.42799e-08
3.74034e-07
3.65835e-06
-5.01676e-06
-4.97927e-06
-2.96378e-06
9.60757e-06
3.57257e-06
4.82594e-06
3.44498e-06
3.23048e-06
2.57281e-06
-2.87507e-07
2.26632e-06
6.83501e-06
6.83591e-06
5.68245e-06
4.20404e-06
5.79678e-06
3.80362e-06
2.02891e-06
-5.63165e-07
2.51332e-06
8.13002e-06
3.42367e-06
6.69434e-07
6.52064e-06
2.17048e-06
3.15343e-06
3.66355e-06
3.84453e-06
3.87463e-06
4.17275e-06
4.45361e-06
3.42904e-06
3.73745e-06
6.06552e-06
2.4077e-06
7.76406e-06
1.14472e-05
5.69691e-06
7.84201e-06
6.44202e-07
1.0101e-05
3.36783e-06
1.11899e-06
4.28233e-06
5.77707e-06
1.0189e-05
5.46692e-07
1.95786e-06
3.63261e-06
6.54961e-06
9.87793e-06
9.10992e-06
-3.24792e-06
3.19521e-06
-1.9153e-06
-1.76362e-06
7.57299e-06
7.34857e-06
5.71766e-06
7.6203e-07
7.45001e-06
4.11948e-06
7.18085e-06
1.07075e-05
7.04626e-06
7.35211e-06
5.22881e-06
3.55335e-06
5.03909e-06
1.51572e-06
2.64365e-06
1.30368e-06
4.78322e-07
5.89287e-07
-1.8243e-06
-5.74382e-06
-1.0714e-09
5.55357e-06
3.96825e-06
-7.29935e-07
9.30799e-08
1.30089e-06
7.10321e-06
9.73853e-06
8.73908e-06
5.89281e-07
-6.02344e-08
7.19636e-06
6.80208e-06
1.95259e-06
2.32743e-06
2.81221e-06
7.1885e-06
6.78233e-06
1.78221e-07
-8.74416e-06
1.66902e-06
5.73797e-06
-1.08959e-06
-3.67843e-06
-4.80535e-07
1.08244e-06
5.65016e-06
5.90805e-06
3.91551e-06
-1.90312e-06
-3.99052e-07
4.86247e-06
2.50219e-06
2.0247e-06
-9.39918e-07
-5.82556e-07
4.58275e-06
8.35986e-06
7.25428e-06
2.22829e-06
-2.79104e-07
3.5962e-06
3.28711e-06
5.73114e-07
1.77236e-06
2.07265e-06
2.05708e-06
2.76245e-06
3.14543e-06
2.02426e-06
5.59805e-06
7.39344e-06
1.30763e-06
-2.72722e-06
-6.28495e-06
-1.05771e-07
5.51027e-06
1.42055e-06
2.12899e-06
1.65387e-06
2.20111e-06
3.3836e-06
5.55156e-07
2.34133e-06
-2.49547e-07
-9.0972e-08
-5.05244e-07
3.2643e-07
1.01918e-06
7.4838e-07
6.05304e-07
3.74423e-07
4.45831e-08
-8.03894e-08
8.35155e-09
-4.09528e-08
-1.40658e-08
2.12679e-07
-5.66045e-08
-2.25197e-07
-2.98731e-07
-2.27312e-07
-5.27081e-08
-2.32254e-07
-8.84088e-07
-9.98513e-08
-3.95941e-07
3.09385e-07
1.91107e-06
1.02486e-06
8.43793e-07
8.88152e-07
3.29629e-07
3.26229e-08
-7.69687e-08
-4.88432e-07
-1.66154e-08
-2.92569e-07
-3.41585e-07
-2.48088e-07
-2.54675e-07
-7.40057e-07
-1.95722e-08
-5.3264e-07
-1.64129e-06
4.25943e-07
1.56635e-08
4.83052e-07
3.86755e-06
5.41206e-06
7.98062e-07
1.83077e-06
9.25638e-07
2.61536e-06
8.31431e-08
-7.64309e-07
-5.1061e-07
-1.10109e-08
8.45288e-08
6.25392e-08
7.70494e-07
-5.51708e-07
5.20263e-07
-2.74177e-07
7.87019e-06
1.31452e-05
-1.37798e-06
-4.23775e-07
-9.75285e-06
-4.3029e-08
1.01716e-05
7.05456e-07
1.74983e-06
-5.01438e-06
2.75304e-06
6.15507e-07
3.61962e-07
5.71812e-07
3.37997e-06
6.13383e-07
2.36236e-06
4.36282e-07
-7.02131e-07
-3.36461e-07
1.32771e-05
9.69051e-06
2.56718e-06
3.29495e-06
1.8417e-06
-4.76573e-06
4.32922e-06
1.20322e-05
-1.62403e-06
-7.07322e-06
-4.23597e-07
1.83097e-06
8.20183e-07
6.2565e-06
3.27343e-06
3.13409e-06
1.97088e-06
2.37584e-06
7.48761e-07
-2.62627e-07
2.49477e-05
1.69964e-06
1.8516e-06
5.56471e-06
1.01672e-06
1.7875e-06
6.65311e-07
7.52579e-06
-9.82611e-07
-6.64811e-06
-5.88477e-06
2.76855e-06
8.48986e-06
1.47377e-05
1.56049e-06
2.00781e-06
7.56947e-06
5.28857e-06
6.75317e-06
2.9765e-06
2.06772e-05
-3.2936e-06
7.78255e-07
3.20425e-06
3.64865e-06
2.92124e-06
2.44239e-06
5.14883e-06
5.95036e-06
7.00541e-06
2.67001e-06
5.07712e-06
6.39075e-06
1.37917e-05
1.02295e-05
1.14799e-06
8.53954e-06
4.87331e-06
2.20053e-06
3.88083e-06
2.57204e-05
1.88903e-05
3.64393e-06
1.15808e-06
5.6675e-07
5.83182e-06
4.3419e-06
1.04741e-05
4.75993e-06
7.04034e-06
3.20254e-06
6.05879e-06
2.43226e-06
7.85462e-06
4.92522e-06
2.25924e-06
2.93215e-06
5.12048e-06
4.09468e-06
7.0743e-06
1.06192e-05
6.49648e-06
1.46261e-06
2.10246e-06
1.36987e-06
1.81211e-07
3.03282e-06
6.8591e-06
4.96841e-06
6.26407e-06
1.02533e-05
6.96389e-06
2.39197e-06
7.99834e-06
4.84709e-06
2.43053e-06
1.74482e-06
1.82225e-07
2.56862e-06
9.96092e-06
-1.03834e-06
5.1952e-07
2.80957e-06
3.29552e-06
3.40843e-06
2.15309e-06
4.18459e-06
3.02024e-06
-1.22827e-06
-3.23977e-06
4.8562e-06
5.33734e-06
6.9873e-07
2.01708e-06
1.80862e-06
1.36821e-07
8.83359e-07
3.32376e-06
6.82002e-06
8.42599e-06
-1.27636e-06
8.55694e-07
2.86282e-06
5.38554e-06
6.14804e-06
3.87577e-06
7.02684e-06
8.06435e-06
6.08911e-06
1.81707e-06
2.17893e-06
5.76369e-07
3.7683e-06
7.40415e-06
6.60436e-06
2.39735e-06
9.95526e-07
5.88431e-07
6.69334e-06
7.37056e-06
1.41961e-06
1.39769e-06
1.16229e-06
2.8306e-06
3.62057e-06
2.48061e-06
9.3719e-06
6.51763e-06
2.85397e-06
1.26232e-06
2.72033e-06
6.16713e-06
5.46847e-06
3.11061e-06
3.14417e-06
7.04222e-07
1.21686e-06
1.29173e-06
1.71153e-06
2.53052e-06
-3.11256e-08
3.05113e-07
1.81985e-06
5.98697e-07
-4.22175e-07
-3.08114e-07
4.26139e-07
5.19769e-07
-7.82701e-08
-5.61647e-07
-4.08052e-07
8.05967e-09
2.79273e-07
3.4094e-08
5.37718e-07
2.57645e-07
-2.81356e-07
-1.32822e-07
2.93209e-07
3.38137e-07
1.24883e-07
8.00866e-07
2.74301e-06
1.72143e-06
-3.70789e-07
-5.1464e-08
7.76889e-07
6.48465e-07
7.99939e-08
-4.61556e-07
-4.67686e-07
-1.7963e-08
4.03226e-07
-1.94132e-07
7.26824e-07
-7.78702e-08
-4.7014e-07
-2.12017e-08
4.17375e-07
5.4714e-07
1.45634e-06
1.15878e-06
1.03258e-06
2.99726e-06
1.72302e-06
-1.92519e-07
-1.38282e-06
2.63082e-06
9.18668e-07
1.14264e-06
1.48643e-06
1.58899e-06
1.7844e-06
-1.89488e-07
1.24048e-06
-1.56237e-07
-6.84708e-08
-1.58108e-07
9.08071e-07
2.35442e-06
5.9358e-06
1.39429e-05
1.8218e-05
4.02759e-06
3.55947e-06
6.10749e-06
-6.92108e-07
-7.0877e-06
1.17415e-05
1.29275e-05
2.2103e-06
3.41841e-06
3.27398e-06
3.42681e-06
4.99908e-06
4.507e-06
1.78089e-06
1.50623e-06
2.13628e-06
1.3689e-06
9.64063e-06
1.19761e-05
3.41896e-05
2.24551e-06
-6.12632e-08
1.00002e-05
9.45765e-06
-1.1472e-05
2.22539e-05
1.99142e-05
2.70889e-06
3.75819e-06
2.68995e-06
-2.75283e-06
4.10786e-06
1.14189e-05
2.0331e-06
3.51801e-06
3.90875e-06
-8.1171e-06
-2.39782e-06
-6.18932e-07
3.90778e-05
7.61643e-06
3.49034e-06
5.57097e-06
4.65536e-06
-8.47599e-06
2.17738e-05
3.00201e-05
6.07702e-06
8.67096e-06
6.80669e-06
5.15539e-06
1.30126e-05
1.00677e-05
2.78466e-06
4.28863e-06
1.01489e-05
3.27073e-07
9.78696e-06
7.2521e-06
2.35126e-05
1.41531e-05
5.44114e-06
8.9706e-06
9.01376e-06
-1.47359e-07
8.99024e-06
1.23764e-05
2.87455e-06
5.88055e-06
-1.4489e-07
6.72716e-06
1.20144e-05
4.00862e-06
5.197e-06
6.8953e-06
5.2306e-06
-1.56709e-06
8.50336e-06
6.12328e-06
2.97313e-06
8.15164e-06
8.54645e-06
2.96698e-06
6.62954e-06
2.00909e-05
1.54724e-05
1.20264e-05
6.83612e-06
3.7915e-06
-2.46409e-06
-2.90501e-06
5.35598e-06
4.69322e-06
7.40956e-06
6.53604e-06
9.81852e-06
5.83504e-06
1.03987e-06
-1.54054e-06
-1.8552e-06
1.05407e-06
3.20079e-06
3.96422e-06
-1.06608e-06
1.25591e-05
2.34149e-05
2.00609e-05
5.36529e-06
4.8679e-06
1.26336e-06
5.56021e-06
-1.32808e-06
2.26357e-06
2.36604e-06
1.6534e-06
5.49522e-06
7.40825e-06
3.25933e-06
2.32826e-06
7.97306e-07
2.98919e-06
1.47167e-06
2.45045e-06
3.14265e-06
3.01303e-06
2.09038e-06
1.49644e-06
3.08912e-06
2.10001e-06
2.10742e-06
2.60164e-07
-3.75613e-06
-1.74599e-06
-5.392e-06
-1.16278e-06
5.86982e-06
7.64668e-06
3.24917e-07
-3.40644e-07
6.87247e-07
2.83186e-06
3.00657e-06
2.23954e-06
2.55004e-06
4.74572e-06
3.68843e-06
1.18004e-06
7.33377e-07
-1.40597e-07
1.54291e-06
8.97042e-07
-2.53116e-07
-2.15486e-06
-1.86118e-06
1.13387e-06
6.68462e-06
7.7311e-06
7.5262e-07
6.87886e-07
7.06326e-07
2.3892e-06
2.23735e-06
7.00395e-07
-1.28904e-06
3.96598e-07
1.11558e-06
2.0648e-06
2.02798e-06
1.69387e-06
1.51794e-06
3.34682e-06
2.83921e-06
-3.68853e-06
-1.21555e-06
5.45885e-06
6.52347e-06
1.74071e-06
-4.36503e-08
-4.71052e-07
-5.76056e-08
-3.17373e-07
-1.58513e-07
7.72866e-07
1.62241e-06
3.07022e-07
1.84656e-07
1.20047e-07
1.95475e-07
1.71008e-07
1.32661e-07
-3.46682e-07
8.83788e-07
-2.48753e-07
-8.43193e-07
2.33519e-07
1.29089e-06
7.7192e-07
3.47607e-08
-5.38716e-07
3.57592e-07
7.79302e-08
-1.63171e-09
9.54132e-07
2.74692e-06
6.86898e-07
5.62269e-07
4.20515e-07
3.00149e-07
3.80399e-07
3.15726e-07
-4.69959e-07
1.51198e-06
-3.75723e-07
-9.95014e-07
1.7231e-07
1.82293e-06
1.60471e-06
6.62827e-07
1.33894e-06
1.36622e-06
2.25554e-06
5.82739e-07
-3.26718e-06
3.22144e-06
2.28105e-06
9.62183e-07
1.17986e-06
7.81648e-07
1.32139e-06
2.96771e-06
-1.17464e-06
3.92726e-06
2.65357e-07
-7.1682e-07
2.79539e-07
1.09494e-06
3.93183e-06
5.04611e-06
1.16634e-05
1.04284e-05
7.1982e-06
1.23027e-06
2.56121e-06
-3.7e-07
6.07616e-07
9.91247e-07
1.3228e-05
4.77044e-06
8.80868e-06
1.43729e-05
6.98961e-06
8.57388e-06
7.93379e-06
2.84463e-06
-5.70874e-07
5.60508e-07
2.69351e-06
2.60974e-06
1.96522e-05
1.66487e-05
8.47365e-06
6.102e-06
6.73248e-06
1.34222e-05
-6.78115e-06
4.21025e-06
1.95436e-05
8.02485e-06
4.90387e-06
9.55462e-06
6.89925e-06
2.38137e-05
1.10619e-05
4.86812e-06
5.2355e-06
1.59063e-06
-5.28192e-06
-1.21672e-06
2.7413e-05
2.71565e-05
6.17069e-06
3.55091e-06
-9.52991e-07
-1.58505e-07
-6.61638e-06
8.11476e-06
2.12045e-05
8.1077e-06
9.96854e-06
8.58628e-06
7.78001e-06
2.21985e-05
9.70914e-06
-4.26488e-06
3.93906e-06
4.75533e-06
9.46581e-06
8.51158e-06
3.14158e-05
3.32217e-05
1.55456e-06
8.02786e-07
5.25024e-06
7.20777e-06
-5.1438e-06
5.46894e-06
1.16605e-05
2.24423e-06
4.72338e-06
4.67322e-06
1.40363e-06
1.00235e-05
3.51049e-06
1.28118e-06
7.21445e-06
3.63967e-06
3.63096e-07
2.59807e-06
9.9481e-06
1.25406e-05
5.26983e-06
5.49409e-06
-7.65065e-07
4.97953e-07
6.88528e-06
9.99906e-06
6.89044e-06
4.41218e-06
3.34347e-06
-1.47706e-06
-6.09958e-06
-4.1664e-06
3.41659e-06
7.60035e-06
4.63424e-06
8.23366e-06
1.81757e-06
6.54715e-07
-3.53897e-07
-4.00733e-07
4.75187e-07
1.24386e-06
3.0386e-06
2.57705e-06
7.27007e-06
1.03123e-05
1.009e-05
8.47277e-06
7.9714e-06
8.07622e-06
9.77151e-06
-2.59286e-06
-5.99508e-07
3.45338e-07
5.24437e-06
9.2738e-06
1.84261e-06
4.77722e-06
2.24243e-06
2.4916e-06
4.73817e-06
1.62514e-06
1.58704e-06
4.44783e-06
9.26565e-07
2.8009e-07
1.48424e-06
6.28555e-07
1.6636e-06
5.96523e-06
4.42172e-06
-4.75554e-06
-4.11929e-06
-4.46992e-06
-6.09936e-07
4.27563e-06
6.85201e-06
2.6294e-06
2.66279e-06
2.94226e-06
3.4141e-06
4.38608e-06
3.78222e-06
3.69088e-06
2.38431e-06
2.79723e-06
2.23947e-06
-4.74768e-08
-9.23464e-07
-8.59241e-07
2.07975e-06
8.66802e-07
1.08458e-06
1.36624e-07
1.66581e-06
7.46554e-06
8.343e-06
-1.47353e-06
-3.97973e-06
-4.30526e-07
2.09559e-06
2.81405e-06
5.64777e-07
-1.33672e-06
-3.68112e-07
1.22707e-06
9.40695e-07
-7.81808e-07
6.72674e-07
5.72488e-07
3.98967e-06
4.10694e-06
9.25304e-07
1.85619e-06
6.99991e-06
5.08103e-06
3.32422e-06
3.1557e-07
2.78832e-07
6.841e-07
1.18447e-06
5.28502e-07
1.3079e-07
9.59658e-08
3.65287e-07
1.15437e-07
9.81126e-07
2.35548e-07
-2.80404e-07
9.93374e-07
1.33206e-06
1.44306e-07
1.22935e-06
1.16584e-06
6.54675e-07
-1.29323e-07
-2.55248e-07
3.82996e-07
4.50879e-07
7.91717e-07
1.5859e-06
8.87182e-07
4.22542e-07
2.55978e-07
3.98842e-07
-1.00473e-07
8.39688e-07
7.59371e-07
-4.72191e-07
8.19387e-07
1.71123e-06
3.43787e-08
1.09494e-06
1.55399e-06
1.16987e-06
5.49666e-08
-1.11875e-07
1.05356e-06
-5.23962e-07
2.86886e-07
1.23579e-06
1.06501e-06
1.09028e-06
6.00032e-07
6.42445e-07
-6.63101e-07
-1.56821e-07
5.04105e-07
-9.44919e-07
-2.10007e-06
3.83497e-06
-1.642e-07
2.27539e-07
8.70731e-07
2.1568e-06
1.37476e-06
2.50385e-06
1.32197e-06
2.48738e-06
-1.91301e-06
5.79924e-06
5.91214e-06
3.78508e-06
8.45341e-07
5.55797e-07
5.7933e-07
2.20067e-06
-6.46806e-07
1.10566e-06
-1.07127e-06
1.39751e-05
5.7308e-06
5.85222e-06
2.31074e-06
1.4373e-06
2.67694e-06
3.84786e-06
5.26318e-06
5.05183e-06
-7.46897e-06
-9.12944e-07
1.24656e-05
3.99599e-06
2.93353e-06
3.83338e-06
-1.9935e-06
3.0835e-06
-3.06772e-06
8.74763e-06
7.39432e-06
1.22539e-05
5.01144e-06
6.62644e-06
1.76929e-06
4.99197e-07
4.58207e-06
-9.53396e-06
7.94715e-06
7.77052e-06
1.25221e-06
-9.89175e-06
1.02205e-05
3.79284e-06
3.49192e-07
2.0034e-06
-4.90999e-08
1.98996e-06
-3.13405e-06
1.78455e-05
1.92019e-05
1.53593e-05
6.04453e-06
-4.90211e-06
1.90381e-06
5.03872e-07
1.12275e-05
9.18964e-07
-2.4559e-06
6.53669e-07
2.69117e-06
-2.53555e-06
1.79231e-05
1.28684e-05
-1.37483e-06
-4.39386e-07
-1.53363e-06
-1.54949e-07
2.61425e-06
1.09584e-05
1.15254e-05
7.71522e-06
2.28511e-06
2.76793e-07
6.11253e-06
1.91686e-06
2.39116e-06
3.30108e-06
-1.08963e-06
1.37782e-06
1.88073e-06
2.66309e-06
1.1617e-05
3.7485e-06
8.25195e-07
3.71888e-06
-1.62861e-06
1.19812e-06
5.55348e-06
5.47346e-06
1.80191e-06
1.74238e-06
2.71644e-06
1.7633e-06
2.3973e-06
5.73033e-06
2.24131e-06
6.76605e-07
8.61447e-07
7.0941e-08
-1.81545e-07
5.1333e-06
-4.99372e-07
-9.93335e-06
-3.79555e-07
-9.58393e-07
1.05699e-06
4.02587e-06
9.35254e-06
8.6877e-06
6.84316e-06
7.30846e-06
3.90094e-06
2.06703e-06
1.06284e-06
4.62805e-06
4.96232e-06
3.59468e-06
2.3175e-07
5.01549e-06
4.03566e-06
2.29291e-06
6.01259e-08
-2.6522e-06
2.9391e-06
1.10377e-06
-5.6663e-07
2.45591e-06
2.69616e-06
7.87438e-06
4.07947e-06
2.59693e-06
3.68904e-06
2.43118e-07
7.91485e-07
5.4986e-06
3.75585e-06
-2.04195e-06
7.75438e-06
9.62541e-06
8.60414e-06
6.45337e-06
7.6011e-08
1.9482e-06
5.55749e-06
3.09971e-06
-8.1805e-07
-3.38841e-07
2.07198e-06
9.69044e-07
2.15912e-06
2.45308e-06
6.54449e-06
7.26163e-06
4.09781e-06
5.96005e-06
5.22633e-06
1.70276e-06
7.42259e-06
8.35351e-06
1.1567e-05
9.74742e-06
5.12417e-06
6.04278e-06
4.48493e-06
8.55436e-07
8.80356e-08
1.6319e-06
1.94767e-06
3.13171e-06
2.45936e-07
1.84959e-06
-1.40325e-06
1.74618e-06
3.03934e-06
2.49821e-06
1.52161e-06
2.14303e-06
-7.4993e-08
3.4432e-08
-7.72116e-08
-9.0638e-08
1.68509e-07
2.62766e-07
3.20828e-07
2.58766e-07
6.6695e-08
-2.95057e-07
5.48868e-07
1.15137e-07
-2.16997e-07
-3.2057e-08
2.76132e-08
7.24214e-07
1.28635e-06
7.19921e-07
3.2545e-07
3.46934e-07
-1.00017e-08
1.53501e-07
5.9915e-09
-1.08885e-07
4.83396e-07
3.99733e-07
3.90661e-07
6.13757e-07
-3.58895e-08
-6.16847e-07
9.82241e-07
4.18733e-08
-2.79905e-07
1.85357e-07
4.68259e-07
6.58378e-07
1.89101e-06
8.59728e-07
5.05767e-07
6.00118e-07
-8.7443e-08
3.62781e-08
4.11304e-07
9.4124e-08
1.23868e-07
8.04118e-07
3.94988e-07
5.80178e-07
2.60325e-06
9.28054e-08
1.84453e-06
2.51861e-06
-7.75157e-07
-2.77438e-07
2.92412e-06
5.89396e-07
1.86334e-06
2.41241e-06
2.38539e-07
3.57205e-06
4.8059e-07
6.21872e-07
-1.23546e-06
-1.51955e-06
2.26977e-06
2.23932e-06
1.18965e-06
2.298e-07
9.55581e-07
1.96701e-06
9.94854e-07
5.57117e-06
8.55632e-06
-7.57528e-07
-1.07047e-06
1.2925e-06
-9.52079e-06
2.54039e-06
6.91343e-07
8.41802e-06
2.43255e-06
2.50479e-06
-4.02897e-06
-5.5627e-06
3.80809e-06
6.69496e-06
5.2758e-06
4.02708e-06
1.38267e-06
1.30967e-06
-7.95462e-07
7.03836e-06
1.3337e-05
5.29074e-06
6.81324e-06
7.53654e-06
2.83071e-06
2.70017e-08
4.49802e-06
6.83427e-06
1.44037e-06
5.43084e-06
4.19142e-06
2.44543e-06
3.03575e-06
2.63479e-06
4.44861e-06
5.33982e-06
-3.9595e-06
-7.72646e-07
-1.22969e-07
8.88269e-06
8.89455e-06
9.10734e-06
7.32285e-06
4.89733e-06
1.86814e-06
5.15919e-07
5.54675e-06
2.45341e-06
1.34869e-06
5.50125e-06
1.06482e-05
9.69203e-06
2.85915e-06
4.92674e-06
4.09668e-06
-2.3952e-07
-1.54352e-06
-1.73948e-06
1.66475e-06
4.20629e-06
6.73648e-06
8.97555e-06
5.46297e-06
1.85285e-07
3.2143e-06
4.51976e-06
4.05908e-06
2.80718e-06
1.28258e-05
9.39749e-06
5.49361e-06
5.9352e-06
1.52019e-06
2.93701e-06
3.47464e-06
1.07922e-06
-2.41952e-06
-6.10151e-07
1.03768e-05
9.94155e-06
8.26108e-06
2.5895e-06
3.06178e-06
-6.81326e-07
2.67788e-06
7.50331e-06
5.93464e-06
1.00357e-06
1.01245e-05
6.85252e-06
8.69269e-06
8.58455e-06
9.11148e-06
4.85334e-06
3.92474e-06
1.74905e-06
5.80662e-07
-1.89266e-07
7.54061e-06
9.75984e-06
1.24619e-05
1.02737e-05
2.49324e-06
-5.58369e-07
1.23782e-06
5.42394e-06
4.17658e-06
3.29423e-06
-5.50552e-07
6.13742e-06
7.10156e-06
3.64413e-06
6.17912e-07
1.09007e-06
3.15612e-06
1.54901e-06
-3.55299e-06
1.04261e-07
4.20449e-06
4.80387e-06
4.99973e-06
5.97696e-06
2.88424e-06
-2.59626e-07
1.65648e-06
3.98558e-06
-1.79159e-06
-5.00201e-07
5.70913e-07
8.0267e-07
6.04916e-06
8.25792e-06
6.36056e-06
3.28063e-06
1.04174e-06
1.079e-06
2.81316e-06
1.13189e-06
2.52443e-06
3.30852e-06
3.31568e-06
7.14821e-06
6.27479e-06
1.10872e-05
1.26198e-05
6.9545e-06
3.6198e-06
1.77039e-06
9.17555e-06
2.38432e-06
2.49162e-06
5.44365e-06
7.93209e-06
6.98804e-06
1.26453e-06
1.56145e-06
-6.64535e-08
2.40447e-06
3.71905e-06
3.48467e-06
3.65342e-06
2.99005e-06
2.57531e-07
1.11004e-06
5.12907e-06
2.80259e-06
1.57668e-06
4.33013e-06
2.52188e-08
-1.99566e-07
-2.66748e-07
-3.24203e-07
-4.96125e-08
1.55486e-07
2.18654e-07
3.39482e-07
2.31965e-07
4.74632e-07
8.40026e-07
-1.18629e-07
4.54279e-07
2.08028e-06
6.93644e-07
1.62678e-08
5.97554e-08
-4.65556e-08
3.56325e-08
-6.97057e-08
-1.02657e-08
-2.41622e-07
-3.04012e-07
-4.15504e-07
3.56377e-08
1.14366e-07
2.84976e-07
4.43439e-07
2.72011e-07
9.86607e-07
1.06147e-06
-2.48918e-07
2.40311e-07
3.35175e-06
2.11633e-06
4.05008e-07
3.14396e-07
1.30359e-07
1.5996e-07
2.98888e-07
-2.0466e-07
-4.59709e-07
-1.55315e-07
-3.05932e-07
-6.9292e-08
-4.49179e-08
3.77739e-07
5.884e-07
1.08783e-06
3.78759e-07
6.59064e-07
-1.47344e-06
-1.69483e-06
-1.49355e-06
7.99277e-06
2.80169e-06
-1.19747e-07
7.32162e-07
1.49142e-06
3.89239e-06
4.6292e-07
-7.37875e-07
-1.58992e-06
4.33977e-06
9.17595e-06
3.6957e-06
-1.94261e-06
-5.84573e-07
3.00851e-06
1.82981e-06
2.00894e-06
2.6324e-06
3.64684e-06
-1.9123e-06
2.89563e-06
8.99394e-06
4.83922e-07
1.58521e-06
6.81518e-06
1.1731e-05
-1.39113e-06
5.35629e-07
-3.09098e-07
4.76235e-06
6.60462e-06
2.37381e-06
-3.72433e-06
-4.60817e-07
2.45709e-06
7.44818e-07
9.92259e-07
5.69247e-06
5.9676e-06
1.06731e-06
-1.99006e-06
6.74031e-06
4.11298e-06
-1.46647e-06
5.79472e-06
8.45769e-06
-9.15836e-07
7.26921e-07
2.38142e-06
-1.25809e-06
-6.23119e-06
-1.57802e-06
1.05567e-06
1.01661e-05
-4.24553e-06
-4.25884e-06
-1.60388e-06
4.95851e-06
5.91955e-06
5.40107e-06
3.31994e-06
3.92059e-06
1.00259e-06
1.13504e-06
2.45259e-06
2.77408e-06
5.53571e-06
2.55665e-06
6.8563e-06
2.61379e-06
-4.35049e-06
5.32337e-06
8.74675e-06
1.64962e-06
-7.36295e-06
-4.29989e-06
-1.76502e-06
2.41292e-06
4.69138e-06
3.36986e-06
4.8899e-06
4.63702e-06
2.8798e-06
4.21089e-06
3.70906e-06
4.40405e-06
1.52491e-05
4.0001e-06
7.8184e-06
5.66351e-06
-1.59929e-06
5.67431e-07
6.60775e-06
-4.77034e-06
-3.19362e-07
3.15338e-06
5.38354e-06
9.37391e-06
1.47232e-05
1.64113e-06
3.57413e-06
3.10998e-06
5.49453e-06
4.92218e-06
6.76723e-06
4.85615e-06
1.03111e-05
9.6529e-06
6.91569e-06
5.45478e-06
7.90861e-06
4.93584e-06
2.80441e-06
4.28982e-06
5.12249e-07
2.57085e-06
6.70624e-06
7.67173e-06
1.03699e-05
5.83162e-06
2.38988e-06
2.93754e-06
8.22294e-06
7.75804e-06
1.66307e-06
2.43091e-06
5.37691e-06
6.03082e-06
2.32289e-06
1.27132e-06
1.23503e-06
2.45951e-06
4.53272e-06
2.3373e-07
-2.5548e-06
3.37766e-06
4.4417e-06
4.07896e-06
4.66849e-06
6.98395e-06
3.9333e-06
-2.9695e-06
-1.37766e-06
3.64171e-06
4.6722e-07
-5.52372e-07
5.31214e-06
2.36519e-06
3.67731e-06
2.93162e-06
7.15313e-06
7.28827e-06
2.3566e-06
3.53882e-07
2.14729e-06
4.05934e-06
2.67123e-06
1.91365e-06
3.00953e-06
4.39429e-06
2.31791e-06
3.99156e-06
4.95819e-06
9.75476e-07
1.52124e-06
7.57959e-07
6.79402e-06
2.34239e-06
1.29997e-06
3.28551e-06
5.34633e-06
4.66947e-06
-1.09989e-06
1.23897e-07
-5.46686e-06
1.09035e-06
1.68002e-06
8.21032e-07
1.74195e-06
2.96175e-06
1.84052e-07
-1.64336e-07
1.94137e-06
3.44862e-06
1.3483e-06
3.56774e-06
2.58616e-07
-2.93479e-08
-1.61346e-07
-5.65478e-08
2.41142e-07
2.46489e-07
-5.96959e-08
-1.2496e-07
-3.33049e-08
2.80925e-07
-2.41825e-08