/*--------------------------------*- C++ -*----------------------------------*\
| =========                 |                                                 |
| \\      /  F ield         | OpenFOAM: The Open Source CFD Toolbox           |
|  \\    /   O peration     | Version:  5.0                                   |
|   \\  /    A nd           | Web:      www.OpenFOAM.org                      |
|    \\/     M anipulation  |                                                 |
\*---------------------------------------------------------------------------*/
FoamFile
{
    version     2.0;
    format      ascii;
    class       volScalarField;
    location    "0";
    object      p;
}
// * * * * * * * * * * * * * * * * * * * * * * * * * * * * * * * * * * * * * //

dimensions      [0 2 -2 0 0 0 0];

internalField   nonuniform List<scalar> 
7200
(
0.000198562
9.00983e-05
8.23649e-05
0.000114487
4.27984e-05
6.44407e-05
2.39278e-05
0.000292429
0.000320887
0.000239703
0.000201114
0.00021244
0.000342005
0.000316278
0.000198493
0.000161609
0.000116438
0.000205473
0.000243395
0.00028902
0.000160915
8.82863e-05
9.45733e-05
9.63923e-05
3.84757e-05
6.2892e-05
1.97346e-05
0.000291187
0.000321083
0.000220681
0.000203709
0.00021074
0.000342191
0.000317591
0.000196148
0.000160026
0.000115361
0.000204363
0.000263447
0.000266616
0.000157841
7.62243e-05
4.92281e-05
8.45959e-05
3.35501e-05
3.49856e-05
9.69207e-05
0.000330345
0.000283486
0.000225497
0.000200287
0.00020333
0.000366595
0.000259294
0.000184144
0.000130216
0.00010931
0.000200348
0.000228976
0.000273263
0.000146303
5.44318e-05
-4.33694e-05
3.94824e-05
2.227e-05
6.87422e-05
-5.66109e-06
0.000267667
0.000261755
0.000241688
0.000228277
0.00018728
0.000307021
0.00028179
0.000199034
0.000166252
9.7696e-05
0.000194252
0.000218559
0.000269996
0.000165237
8.82944e-05
-8.59861e-05
3.0314e-05
3.44255e-05
4.56256e-05
-2.09733e-05
0.000133561
0.000225505
0.000250878
0.000244511
0.000220806
0.000296926
0.000320258
0.000206298
0.000117515
9.6596e-05
0.000190037
0.000249223
0.000254662
0.000176842
0.000105233
-5.27484e-05
-2.33024e-05
5.21481e-05
4.25443e-05
-4.09138e-05
0.000116253
0.000182052
0.00022246
0.000223247
0.000227845
0.000323947
0.000278393
0.000144449
8.41819e-05
0.000100994
0.000231696
0.000246691
0.000248446
0.000151735
0.000204344
7.89566e-05
-4.2967e-06
5.44626e-05
3.97449e-05
1.25876e-06
-3.0242e-06
0.000120149
0.000182285
0.000197361
0.000258953
0.000306624
0.000283555
0.000195248
5.45965e-05
0.000141295
0.000207084
0.000236698
0.000238558
0.000129091
0.000223111
0.000200429
6.0628e-05
7.64157e-05
0.000125343
0.000115585
7.83341e-05
0.000131116
0.00016966
0.000173461
0.000289583
0.000343922
0.000259389
0.00012168
3.04656e-05
8.59266e-05
0.000216579
0.000219531
0.00021947
9.13379e-05
0.000198963
0.000215808
0.000203491
0.000178113
0.000192614
0.000186995
0.000168837
0.000172052
0.000145936
0.000145898
0.000190412
0.000384954
0.000341292
0.000123394
-2.00958e-05
0.000129557
0.000215526
0.000192337
0.000210248
0.000118381
0.000183692
0.000205291
0.000191487
0.000176003
0.000194196
0.000196234
0.000210817
0.000199172
0.000189502
0.000167233
0.00017238
0.000286426
0.000331498
0.00020735
5.48538e-05
9.53588e-05
0.000194759
0.000195152
0.00019886
0.000172135
0.000182853
0.000204448
0.000195566
0.00017222
0.00017039
0.000169733
0.000207113
0.000205109
0.000195927
0.000176009
0.000183013
0.000236095
0.000254036
0.000201394
0.000115801
0.000142543
0.000197706
0.000206106
0.000196417
0.000195746
0.00017728
0.000186887
0.000199635
0.000185101
0.000181282
0.000162629
0.000173938
0.000182074
0.000189941
0.000186662
0.000188794
0.000214115
0.000213068
0.000189634
0.000152808
0.000163347
0.000186421
0.000194815
0.000193674
1.34303e-05
-9.06654e-06
0.000247313
0.00026414
0.000188679
0.000208166
0.00021944
0.00028719
0.000265376
0.00022428
0.000134915
0.000115259
0.000284754
0.000341843
0.000220523
0.000115715
9.23268e-05
0.000275203
0.000347944
0.00031644
-4.12755e-05
9.15663e-05
0.000277846
0.000211153
0.000172343
0.000195387
0.000183179
0.00028713
0.000220679
0.000174272
9.03048e-05
0.000110933
0.000350243
0.000397215
0.000220879
9.16708e-05
0.000125823
0.00026545
0.000308956
0.000314653
-5.89833e-05
6.74408e-05
0.000277102
0.000211969
0.000174297
0.000206242
0.000183902
0.000259018
0.000220657
0.000198996
9.06278e-05
9.20256e-05
0.000388447
0.000358946
0.000269348
8.28469e-05
0.000121318
0.000296125
0.000306959
0.000270047
-6.43696e-05
0.000140211
0.000213813
0.000203961
0.000193252
0.000247491
0.000199371
0.000267944
0.000257526
0.000203027
0.000119137
0.00017299
0.000299136
0.00035628
0.000200224
0.000102856
0.000160227
0.000332519
0.000317441
0.000270462
-3.14588e-05
-9.11771e-05
9.17029e-05
0.000148568
0.00016509
0.000238525
0.00021225
0.000181726
0.000199299
0.00016767
5.04748e-05
7.20886e-05
0.000247259
0.00037426
0.000234567
8.46994e-05
0.000128866
0.000319874
0.000302761
0.000252952
0.000104229
7.72757e-05
0.000165384
6.49259e-05
0.00013477
0.000231428
0.000167686
0.000130308
0.000223397
0.000104121
6.4097e-05
3.42099e-06
0.000197523
0.00030789
0.00024027
3.06976e-05
0.000115344
0.00029872
0.000291937
0.000280173
0.000123571
0.00012091
2.539e-05
7.49346e-06
0.000124558
9.38579e-05
0.000106371
0.000116428
0.000136867
0.000108012
7.27541e-05
1.86844e-05
0.000185068
0.000291665
0.000223305
5.02856e-06
7.41062e-05
0.000314441
0.000289815
0.000259257
0.000150251
0.000150083
0.000159262
6.58244e-05
3.04121e-05
0.000125107
0.00017059
3.37799e-05
8.31339e-05
0.000117236
8.54346e-05
0.000123846
0.000264351
0.000252372
0.000116635
1.62791e-08
9.66029e-05
0.000300109
0.00029596
0.000240493
0.000148267
0.00016515
0.000203852
0.000137509
4.32688e-05
9.40708e-05
0.000157127
0.000145083
0.000109446
0.000145164
0.000114646
0.000141075
0.000238475
0.00027019
0.000126806
2.68562e-05
0.000105849
0.000301159
0.000294627
0.000231582
0.000152605
0.000163943
0.000212994
0.000194161
0.000141065
0.000140391
0.000163332
0.000199206
0.000191469
0.000188816
0.000157626
0.000185083
0.000250001
0.000259042
0.000135054
6.98775e-05
0.000175668
0.000259409
0.000242684
0.000215017
0.000170745
0.000176344
0.000199993
0.000179174
0.000162604
0.000172139
0.000185404
0.000208635
0.000208319
0.000208859
0.000202865
0.000192915
0.000247958
0.000235297
0.000186051
0.000130637
0.000154375
0.000218504
0.000224132
0.00022017
0.000172774
0.000167817
0.000179958
0.000195139
0.000185305
0.000180125
0.000181361
0.000201882
0.000201617
0.000206736
0.000204296
0.000197441
0.000203778
0.000196737
0.000181141
0.000154508
0.000167744
0.000207803
0.000207306
0.0002113
0.000112469
6.31928e-05
0.000228789
0.00023775
0.000183924
0.000243475
0.000199347
0.000125203
0.000179275
0.000190394
0.000178997
0.000199319
0.000360587
0.000367842
0.000303075
0.000108881
0.000195341
0.000316954
0.000303047
0.00026105
5.48914e-05
0.000128993
0.000228306
0.000205427
0.00018405
0.000245608
0.000197273
0.000122256
0.000187939
0.000189821
0.000178026
0.000259753
0.000359438
0.000343463
0.000229322
9.94196e-05
0.000193244
0.000318101
0.000303099
0.000260782
5.73723e-05
4.55472e-05
0.000213931
0.000234125
0.000185114
0.000250025
0.000186865
0.000117903
0.00016686
0.000173878
0.000160511
0.000190111
0.00035296
0.000336971
0.000292295
0.000103806
0.000184569
0.000308605
0.000308122
0.00026197
6.44973e-05
3.09325e-05
0.000159248
0.000200035
0.000200869
0.000233848
0.000181477
0.000131074
0.000164408
0.000144962
0.000145654
0.000174911
0.000340812
0.000352192
0.000275678
8.39061e-05
0.000175253
0.000288289
0.000289347
0.000293505
0.000124429
7.64838e-05
0.00013374
0.000179304
0.000183855
0.000224506
0.000194289
0.000142507
0.000150568
0.000110145
0.000123777
0.000155487
0.00032183
0.000321936
0.000255944
7.42975e-05
0.000158797
0.00028911
0.00027422
0.000297083
0.000127726
9.58873e-05
0.000140387
0.000179853
0.000161778
0.000229925
0.000212416
0.000169493
0.000147211
9.93043e-05
0.0001036
0.000115463
0.000259808
0.000334523
0.000228842
4.30057e-05
0.000144174
0.000301018
0.000267857
0.000284196
0.00010149
9.40445e-05
0.000168087
0.000150096
0.000155968
0.000197612
0.000221029
0.000206969
0.000127888
8.55681e-05
0.000100475
4.46576e-05
0.000149341
0.000289731
0.000198095
3.61674e-05
0.000218076
0.000316539
0.000273283
0.000265286
0.000141444
0.000109657
0.000160244
0.000157547
0.000126284
0.000189325
0.000221416
0.000211939
0.000128821
0.000140168
9.08344e-05
3.01554e-05
0.00017074
0.000232924
0.000175964
4.3026e-05
0.000137332
0.000315623
0.000276287
0.000248658
0.000141624
0.000149774
0.000184465
0.000163499
0.000145336
0.000172525
0.000214286
0.000231003
0.000176135
0.000161958
0.000114458
8.07847e-05
0.000121798
0.000220692
0.000179964
6.06767e-05
0.000139339
0.000291738
0.000281641
0.000226739
0.000161069
0.000157813
0.000179189
0.000167946
0.000156015
0.000174596
0.000210758
0.000240759
0.000200757
0.000166612
0.000155089
0.000141186
0.00017757
0.00021661
0.000134877
9.9715e-05
0.000196629
0.0002447
0.000249143
0.000226963
0.000176553
0.000170039
0.000180034
0.000179937
0.000168465
0.000175356
0.000208445
0.000223449
0.000223018
0.000213043
0.000177465
0.000164751
0.000206209
0.000213225
0.000185564
0.000136985
0.000193656
0.000232877
0.000232651
0.000214851
0.000179317
0.000178432
0.000191479
0.00020219
0.000192401
0.000185263
0.000196353
0.000209548
0.000211375
0.000216607
0.000193614
0.00018397
0.000211121
0.000209338
0.000189264
0.000157493
0.000179982
0.00020822
0.000214854
0.000211046
0.000155436
0.000153084
0.000232191
0.000377486
7.62304e-05
0.000170217
0.000340417
0.000192683
0.000114778
0.000162175
0.000193428
0.000208178
0.000325562
0.00035752
0.000332264
7.37317e-05
0.000198087
0.000242451
0.000251634
0.000269055
0.000120549
0.000151195
0.000313569
0.000382257
7.45095e-05
0.000166565
0.000340757
0.000191817
0.000125035
0.000160216
0.000193174
0.000206176
0.000323845
0.00035555
0.000331773
9.40165e-05
0.000196318
0.000238327
0.000249935
0.000265752
0.00016074
0.000139037
0.000195939
0.000287086
3.0646e-05
0.000149654
0.000334374
0.000187821
0.000113102
0.000178962
0.000182361
0.000201827
0.000339426
0.000363997
0.000324423
9.37159e-05
0.000187631
0.000238267
0.000269663
0.000253708
6.17507e-05
0.000114289
7.56474e-05
0.000254329
5.46495e-05
0.000211445
0.000288287
0.000193517
0.000102591
0.000125317
0.000179823
0.000238394
0.000331396
0.000331501
0.000302175
9.2668e-05
0.000168835
0.000228501
0.00023984
0.000224446
3.42426e-05
7.96682e-05
-7.92402e-06
0.000222559
7.33133e-05
0.000136982
0.000260311
0.000212517
0.000112746
0.000116422
0.000171024
0.000192905
0.000328683
0.000331011
0.000273482
9.1906e-05
0.000147302
0.000233302
0.000255189
0.000265544
9.06763e-05
6.77214e-05
6.41504e-05
0.0002579
0.000135233
0.00021544
0.000251607
0.000241764
0.000137314
0.000114365
0.000161185
0.000186938
0.000306755
0.000319337
0.000235211
6.15233e-05
0.000144158
0.000239349
0.000243903
0.00024693
7.54905e-05
7.18134e-05
0.00017056
0.000189215
0.000133725
0.000184283
0.000250667
0.000245643
0.000148676
0.000110107
0.000159711
0.000112838
0.000239817
0.00029347
0.00019977
4.27665e-05
0.0001579
0.000244642
0.000237537
0.00025518
1.09637e-05
1.9119e-05
0.000165801
0.000171761
0.000153282
0.000204144
0.000225275
0.00025504
0.000175264
0.000163417
0.000181751
8.2987e-05
0.000144267
0.000247175
0.000188758
6.08095e-05
0.000164759
0.000260836
0.000237385
0.000246026
0.00014571
8.29309e-05
0.000169327
0.000179698
0.000131991
0.000218395
0.000229662
0.000252129
0.000198275
0.000175252
0.000139159
0.00010598
0.000161288
0.000223808
0.000184707
8.01666e-05
0.000160369
0.000259377
0.000248721
0.000233655
0.000160319
0.000141683
0.000172816
0.000173452
0.000153234
0.000175856
0.000219627
0.000252148
0.000212527
0.000182224
0.000136744
0.000149908
0.000201666
0.000226066
0.000172988
9.28717e-05
0.000196213
0.000251294
0.000246932
0.000227578
0.000181251
0.000172553
0.000177362
0.000182425
0.000166042
0.000184104
0.000208822
0.000215607
0.000220729
0.000206969
0.000153787
0.000154638
0.000209567
0.000217529
0.000185624
0.000136471
0.000192728
0.000227965
0.000236678
0.000221809
0.000185912
0.000184803
0.000191693
0.000201937
0.000189509
0.000186199
0.000201657
0.000213252
0.000217357
0.000206136
0.000182768
0.000177512
0.000201532
0.000203119
0.000187281
0.0001565
0.000177832
0.00020614
0.00021305
0.000211285
0.000371328
0.000214038
0.000113517
-3.24189e-05
-3.85864e-05
0.000324132
0.000463978
0.000269784
0.00018203
0.000132284
0.000178813
0.000217075
0.000242238
0.000258942
0.000256785
0.000104249
0.000146049
0.000187022
0.000212255
0.000219544
0.000200075
0.000213668
0.000107813
-4.07914e-05
-4.5457e-05
0.000470098
0.000466553
0.000270473
0.000183296
0.000130913
0.000188264
0.000224707
0.000240138
0.000235679
0.000198529
0.000108275
0.000148112
0.000181213
0.000210075
0.000221276
0.000195595
0.000213297
8.74047e-05
4.75504e-05
8.36222e-05
0.00060324
0.000509632
0.000271215
0.000189318
0.000219421
0.000195549
0.000258515
0.000258901
0.000226937
0.000154016
0.000104543
0.000143755
0.000182637
0.000221127
0.000183068
0.000187838
0.000173634
8.87305e-05
-7.53821e-05
-7.5559e-05
0.000339485
0.000410105
0.000229255
0.000195186
0.0001469
0.000193558
0.000254451
0.000294517
0.000240222
0.000181466
8.97611e-05
0.000169452
0.000167723
0.000173614
0.000193277
0.000151856
0.000136835
5.2424e-05
-2.79671e-05
-2.44246e-05
0.000248285
0.00034562
0.000290609
0.000140136
8.96855e-05
0.000181619
0.000262466
0.000275403
0.000250436
0.000186697
7.02546e-05
0.000146374
0.000191105
0.00021011
0.000220936
0.000266374
6.18607e-05
-7.89177e-06
4.15592e-05
4.94231e-05
0.00017634
0.000368749
0.000273168
0.000156389
6.86207e-05
0.00015144
0.000285268
0.000364144
0.00029238
0.000103418
3.90759e-05
0.000161579
0.000138007
0.000156368
0.000247063
0.000163846
1.40032e-05
7.46358e-05
0.00010464
9.50954e-05
0.000186169
0.000296269
0.000304119
0.000245926
0.00015313
0.000186161
0.000238479
0.000342096
0.000321676
0.000187087
1.40615e-07
0.000161906
0.000196884
0.00019297
0.000230527
0.000221541
2.4242e-05
4.05398e-05
0.000127797
0.000105515
0.000224288
0.000229532
0.000286911
0.000241765
0.000186932
0.000196321
0.000230164
0.000277854
0.000260623
0.000176814
3.86809e-05
0.000118435
0.000185413
0.000161411
0.00023669
0.000175711
8.12983e-05
9.93723e-05
0.000138015
0.0001196
0.00018275
0.000219528
0.000245108
0.000199388
0.000203001
0.000219458
0.000153422
0.000232246
0.000246326
0.000173262
7.93436e-05
0.000135153
0.000222772
0.000212983
0.000216047
0.000181797
0.000145926
0.000138431
0.000151611
0.000129054
0.000152224
0.000214047
0.000231624
0.000187866
0.00017533
0.000195718
0.000193635
0.00023298
0.00021562
0.000146388
0.000123229
0.000175052
0.00021654
0.000227871
0.000224755
0.000196858
0.000178697
0.000179545
0.000188599
0.000163368
0.000182098
0.000221635
0.000234796
0.000211163
0.000163146
0.000158243
0.00019702
0.000216087
0.000221728
0.000175107
0.00014636
0.000182273
0.000206227
0.000242873
0.000238651
0.000201393
0.000195085
0.00019656
0.000200051
0.000190214
0.000184404
0.000209675
0.000226201
0.000215904
0.000207622
0.000186029
0.000210612
0.000218212
0.000198337
0.000165538
0.000154205
0.000172857
0.000200896
0.000211569
0.000213259
0.000233903
0.000123974
0.000226359
0.000259161
4.89845e-05
1.02425e-05
0.000163215
0.000240518
0.000236654
0.000188181
0.000156371
0.000249029
0.000371547
0.00025226
0.000191761
0.000215051
7.0693e-05
7.90376e-05
0.000185332
0.000327563
0.000188335
0.000123273
0.000272311
0.000260165
4.63825e-06
6.54635e-05
0.000156083
0.000257366
0.000239239
0.000185851
0.000154504
0.000248635
0.000372823
0.000252472
0.000228178
0.000150566
7.09125e-05
0.000114644
0.000184093
0.000327968
0.000248214
0.000100954
0.000181539
0.000240217
4.30874e-06
5.26395e-06
0.000132117
0.000251231
0.000244919
0.000173549
0.000159283
0.000236484
0.000372865
0.000173834
0.00023135
0.00022411
5.40912e-05
7.01439e-05
0.00017614
0.000329445
0.000244531
9.1527e-05
0.000149702
0.000164
1.20781e-05
2.00985e-05
0.000105091
0.000186407
0.000216859
0.000155221
0.000120188
0.000188848
0.00033505
0.000241933
0.000141121
0.000227995
3.5187e-05
2.97697e-05
0.000101511
0.000326439
0.000195766
0.000111769
0.000148266
8.91285e-05
2.37717e-05
0.000127001
8.88731e-05
0.000147302
0.00026156
9.68399e-05
6.77455e-05
0.000123287
0.000294038
0.000233973
0.000121051
0.000219006
1.45321e-05
-4.06554e-05
0.000111636
0.00021006
0.00014728
0.000116197
0.000160316
8.29051e-05
2.0173e-05
0.000188136
0.000137383
0.000120029
0.000185617
5.78407e-05
2.28539e-05
0.000118797
0.00027785
0.000225769
0.000188385
0.000202645
-2.19401e-05
-2.45064e-05
0.000124041
0.00024288
0.000161011
9.07797e-05
0.000198706
0.000175473
1.461e-05
0.000198897
0.000199666
0.000218917
0.000148631
8.819e-06
3.09849e-05
0.000156082
0.000229734
0.000191201
0.000174402
0.000125941
4.91196e-05
4.70807e-05
0.000124208
0.000229536
0.000224929
9.42134e-05
0.000141278
0.000165188
5.26946e-05
0.000116331
0.00019584
0.000281607
0.000175915
0.000114643
0.000120059
0.000162157
0.00019329
0.000160847
0.000150576
0.000123868
9.96032e-05
0.000109414
0.000156784
0.000208878
0.000182892
0.000144011
0.000113866
0.000137946
0.000100245
0.000134317
0.000179529
0.000243264
0.000236657
0.00016129
0.000171565
0.000161508
0.000166508
0.000167593
0.000173315
0.000116531
0.000111015
0.000151882
0.000179778
0.000206771
0.000180569
0.000155095
0.000135647
0.000125039
0.000117662
0.000159789
0.000184989
0.000222867
0.000200231
0.000184584
0.00020516
0.000197273
0.000200566
0.000206216
0.000183324
0.000115996
0.000130874
0.000174917
0.000216395
0.000205896
0.000200318
0.000180063
0.000171659
0.000158195
0.000136897
0.000141492
0.000187317
0.000239756
0.00021597
0.000199563
0.000209594
0.000210713
0.000208944
0.000194934
0.000166083
0.000138699
0.000155227
0.000185797
0.000217688
0.000219394
0.000210456
0.000201586
0.000202186
0.00018494
0.000177684
0.000167325
0.000189842
0.000213917
0.000220606
0.0002122
0.000210791
0.000213524
0.000211804
0.000187191
0.000161721
0.000144999
0.000168083
0.000193024
0.000212301
0.000193826
0.000229716
0.000170915
0.00013524
0.000111653
6.55564e-05
-1.91542e-05
0.000367088
0.000289474
0.000151316
0.000235687
0.000177648
0.00025642
0.00038457
0.000167234
0.000235612
0.000287557
-5.31975e-05
2.44208e-05
0.00020491
0.000347338
0.000225292
0.000141611
0.00011859
0.000109234
-7.34264e-06
-2.3292e-05
0.000364704
0.000290296
0.000179364
0.000235462
0.000176257
0.000255424
0.000385282
0.000164987
0.000233454
0.000292527
-5.7738e-05
2.17399e-05
0.000203575
0.000350184
0.000230635
0.000175671
0.000112747
8.74779e-05
-2.07728e-06
-2.43942e-05
0.000337085
0.000284699
0.000166159
0.000233129
0.000170622
0.000245886
0.000383614
8.4253e-05
0.000233376
0.000288799
-8.37043e-05
8.76293e-06
0.0001943
0.000354298
0.000192435
0.000179362
0.000129247
1.44041e-05
4.97468e-05
3.37768e-05
0.000291424
0.000205967
0.00014427
0.000208643
0.000142831
0.0002004
0.000334242
0.000143647
0.000191262
0.000219143
-0.000150448
3.14322e-05
0.000133228
0.000314548
0.000187179
0.000187329
8.55479e-05
-2.00335e-06
2.17658e-06
-6.44504e-06
0.000172345
0.000228077
0.000132299
0.000155858
0.000147423
0.000156445
0.000263614
9.75875e-05
0.000159492
0.000159927
-0.000126098
-2.37203e-05
0.000123561
0.000216937
0.000176687
0.000176403
0.000103581
3.78984e-05
2.86508e-05
9.09704e-05
0.000155634
0.000191899
0.000112666
0.000130323
0.000159637
0.00012145
0.000155678
0.000144195
0.000190897
0.000135691
-0.000112925
-1.36653e-06
0.000146626
0.000195245
0.000191905
0.000165988
0.000111626
2.44399e-05
4.11898e-05
0.000106215
0.000158144
0.000224131
9.74593e-05
4.22082e-05
0.000143248
0.000176968
0.000124751
7.20024e-05
0.000177178
0.000117343
-4.4889e-05
9.78137e-05
0.000180593
0.000191401
0.000191008
0.0001749
0.000105352
8.30908e-05
6.53384e-05
9.26736e-05
0.000142036
0.00022802
0.000160011
6.13776e-05
0.000136596
0.000191212
8.96701e-05
7.95624e-05
0.000149055
8.24726e-05
7.24697e-05
0.00010451
0.000191976
0.000185403
0.000200892
0.000159928
0.000125997
0.000109937
8.81095e-05
0.00012758
0.000147246
0.000210353
0.000137576
0.000118501
0.000189777
0.000195353
0.000148424
0.000117857
0.000155224
0.000120534
0.000118184
0.000157151
0.000189338
0.000187879
0.000200806
0.000157609
0.000117205
9.77184e-05
9.57649e-05
0.000121354
0.000159956
0.000206851
0.000186443
0.000179527
0.000213147
0.000216303
0.000196585
0.000185122
0.000147777
0.000109924
0.000126896
0.000164009
0.000203752
0.000197454
0.000207285
0.000187059
0.000177015
0.000123481
0.000109767
0.000117826
0.000170101
0.00021915
0.000217097
0.00020324
0.000217
0.000219781
0.000214806
0.000191996
0.000162557
0.000129973
0.000147808
0.000179262
0.000215672
0.000197813
0.000215529
0.000208
0.000205774
0.000189583
0.000164966
0.000158008
0.000179092
0.000205084
0.000213945
0.000209156
0.00021247
0.000207982
0.000207351
0.000173993
0.00016042
0.000146598
0.000168051
0.000200382
0.000206017
0.000191365
0.000186763
0.0002245
0.000140829
0.000180196
0.000306592
0.000110662
0.000248619
0.000265939
8.29475e-05
0.00029354
0.000352168
0.000256267
0.000345895
0.000363419
0.000179488
9.06685e-05
0.000126359
0.000342615
0.00027359
0.000171615
0.000193283
0.000215857
0.000138255
0.000175823
0.000308306
0.00010988
0.000247752
0.000266355
8.07463e-05
0.000292238
0.000353523
0.00025316
0.000340333
0.000359233
0.000177343
8.47425e-05
0.000123495
0.000344298
0.000276054
0.000170704
0.00018995
0.000216857
0.000134143
0.000153194
0.000302636
0.000154873
0.000246065
0.000267742
0.000111437
0.000277188
0.000256301
0.000309536
0.00032339
0.00031195
8.78106e-05
5.58028e-05
0.000101361
0.000379224
0.000207615
0.000149489
0.000186636
0.000222669
9.36736e-05
0.000218348
0.000199784
0.000100876
0.000228921
0.000252863
0.000115725
0.000291285
0.000303433
0.000253643
0.000289403
0.000253429
0.000179633
2.90894e-05
4.87988e-05
0.000371556
0.000292004
0.000140493
0.000180105
0.000208507
0.000152331
0.000103894
0.000217349
0.000124125
0.000205201
0.000228461
0.000129388
0.000204632
0.00025677
0.000298759
0.000299701
0.000200993
0.000185987
-5.08394e-05
0.000108691
0.000352076
0.000290042
0.000125865
0.000151469
0.000195482
0.000135665
8.42035e-05
0.000175628
0.00012856
0.000189369
0.000205224
0.000126243
0.000182611
0.000237555
0.000369361
0.000326377
0.000165516
0.000188533
3.06164e-05
7.60711e-05
0.000231055
0.000274348
0.000171937
0.00011568
0.00017419
0.000133569
8.19843e-05
9.16926e-05
0.000119668
0.000159191
0.00020747
0.00011786
0.000157363
0.00022819
0.000277771
0.000225117
0.000139791
0.000161934
6.63475e-05
4.45203e-06
0.000160594
0.0002409
0.00015807
0.00013058
0.000106384
0.00011091
0.000110342
9.7548e-05
0.000124978
0.000125375
0.000212917
0.000143716
0.000164886
0.000232895
0.000271311
0.000270462
0.000152041
0.000125425
6.88993e-05
3.08206e-05
0.000163821
0.000218742
0.000172207
0.0001247
0.000119949
0.00011757
0.000123327
0.000106748
9.99948e-05
9.76427e-05
0.000170199
0.000162942
0.000186017
0.000263692
0.000303776
0.000221013
0.000171535
0.00013952
9.7192e-05
8.39607e-05
8.18117e-05
0.000184346
0.000197211
0.000146708
0.000150246
0.00014269
0.000117478
0.000100468
9.92591e-05
9.99574e-05
0.000152848
0.000155324
0.000195064
0.000233576
0.000288362
0.000231457
0.000196199
0.000167738
0.000122778
0.000124926
0.000128596
0.000165473
0.000200917
0.000190072
0.000199462
0.000176962
0.000145902
9.01292e-05
9.45907e-05
0.000132076
0.000169617
0.000186505
0.000200061
0.000227345
0.000233544
0.000210658
0.000191347
0.000167351
0.000140688
0.000153311
0.000161093
0.000168157
0.000194863
0.000217409
0.000214005
0.000221307
0.000197847
0.000139485
0.000129269
0.000149758
0.000191946
0.000208355
0.000214674
0.000221253
0.000214885
0.000199523
0.000175338
0.000159876
0.000157976
0.00016857
0.000187652
0.000196253
0.000194745
0.000155003
0.000174349
0.000141296
0.00019844
0.000219351
0.000214698
0.000269048
0.00019648
8.27172e-05
0.000102403
0.000195361
0.000481461
0.000309538
9.88214e-05
0.000111784
2.74727e-05
0.000145063
0.000345984
0.000265323
0.000178177
0.000164027
0.000174043
0.000141065
0.000198309
0.000221803
0.000214003
0.00026956
0.000103855
0.000129171
0.000102073
0.000316829
0.000506442
0.0003106
9.10406e-05
0.000110523
2.31142e-05
0.000142135
0.000341553
0.000265565
0.000178537
0.000160919
0.000170643
0.000140963
0.000198257
0.00021902
0.000209367
0.0002667
0.000196276
7.40792e-05
7.82535e-05
0.0003075
0.000500254
0.0003208
0.00010384
0.000115109
9.07441e-06
0.000231445
0.000339573
0.000260483
0.00017487
0.00014877
0.000167946
0.000133575
0.000190624
0.000218612
0.000204712
0.000251948
0.000202885
7.87993e-05
0.00010745
0.000303007
0.000498003
0.000358883
5.96404e-05
0.000156686
-1.00239e-05
6.26966e-05
0.000305888
0.000224863
0.000202906
0.00013838
0.000165201
0.000125185
0.000173654
0.000209781
0.00019901
0.000244812
0.000213461
7.98688e-05
0.000131412
0.000292715
0.000454882
0.00037572
8.68745e-05
0.000142066
5.38269e-05
8.57344e-05
0.000283309
0.000248243
0.000190677
0.000120081
0.000153098
0.000116072
0.000158516
0.000184453
0.000180661
0.000218625
0.000217424
0.000103413
0.000148305
0.000265033
0.000443461
0.000371391
0.000141002
0.000160684
0.000111844
0.000117969
0.000261365
0.000263453
0.000186829
0.000115074
0.000140486
0.000124533
0.00016201
0.000150705
0.000170557
0.000194161
0.000208042
9.85903e-05
0.000158484
0.000189097
0.000307625
0.000343303
0.000175523
0.000146572
0.000109649
0.000105228
0.000213891
0.000260473
0.000166123
0.00016035
0.000170143
0.000148409
0.000170417
0.000158582
0.000169271
0.000184969
0.000198407
0.000108196
0.000148322
0.000206124
0.000263877
0.000253976
0.000154983
0.00014323
0.000102693
9.27442e-05
0.000186748
0.000244244
0.00017485
0.00016139
0.000167687
0.00015703
0.000172853
0.000183073
0.000168156
0.000172558
0.000156816
0.000143162
0.000197372
0.000246501
0.000310306
0.000296609
0.000201903
0.000148937
8.76389e-05
0.000102905
0.000150859
0.000192536
0.000207215
0.000157928
0.000189054
0.000193928
0.0001886
0.000176081
0.000163433
0.000170535
0.000172343
0.000171146
0.00021158
0.000261618
0.000284552
0.000247295
0.000214127
0.000142885
9.692e-05
0.000130592
0.000150113
0.000175077
0.000197474
0.00017048
0.000188503
0.000202079
0.000210565
0.000182815
0.0001678
0.000168486
0.000177335
0.000189932
0.000202443
0.000223729
0.00024143
0.000218207
0.000182384
0.000161296
0.00012659
0.00014105
0.000168885
0.000163899
0.000186741
0.000211323
0.000196899
0.000202811
0.000214581
0.000197399
0.000174695
0.000168423
0.000198949
0.0002152
0.000219813
0.000218994
0.000212184
0.0002037
0.000181859
0.000165923
0.000162147
0.000170924
0.000194333
0.000189582
0.000190348
0.000155731
0.00016017
0.000141303
0.000198997
0.000228482
0.0002348
0.000227856
0.000193604
0.000111912
4.7114e-05
0.000270565
0.000364196
0.000252805
0.000294802
0.000329927
8.14655e-05
5.71409e-05
0.000224107
0.000240869
0.000198419
0.000154777
0.000160195
0.00014077
0.000198534
0.000243984
0.000234927
0.000226532
0.000192696
0.000110478
0.000103679
0.000269262
0.00033712
0.00024944
0.000369022
0.000334946
7.84603e-05
0.000127124
0.000223066
0.000241147
0.000199529
0.000149856
0.0001495
0.000160847
0.000197747
0.000245487
0.000235607
0.000224354
0.000189378
0.000101925
0.000101279
0.000337192
0.00034569
0.000242475
0.000275706
0.000350408
8.37743e-05
0.000113543
0.000240117
0.000226083
0.000204584
0.000132781
0.000153105
0.000139154
0.000207965
0.000250727
0.000234858
0.000217968
0.00017892
5.10149e-05
5.07618e-05
0.000260104
0.000375011
0.000276017
0.000288327
0.000313037
0.000103567
3.57011e-05
0.000232487
0.000248858
0.000215097
0.000113734
0.000147182
0.000143499
0.000190211
0.000229589
0.000218666
0.000220797
0.00017989
3.92127e-05
5.35719e-05
0.000251379
0.000369424
0.000316308
0.000205081
0.00026454
7.98176e-05
6.58532e-05
0.00021202
0.000264794
0.000201514
0.000109159
0.000173581
0.000139898
0.000150238
0.000199238
0.000201053
0.000221331
0.000126817
4.45179e-05
0.000114919
0.00028697
0.000377881
0.00033014
0.000202372
0.000199308
0.00011435
0.000147318
0.000246965
0.000246303
0.000209755
0.000118458
0.000186437
0.000165282
0.00017347
0.000177391
0.000197186
0.000219529
0.000192102
6.03864e-05
0.000126152
0.000196072
0.000312848
0.000326011
0.000199646
0.000166703
0.000141427
0.000122671
0.000242153
0.000252665
0.000191668
0.000175804
0.000218862
0.000189912
0.000187015
0.000186167
0.000190031
0.000197402
0.000176283
7.20102e-05
0.00014368
0.00020751
0.000278861
0.000314927
0.000160942
0.000144061
0.000118868
0.000134973
0.000218171
0.000229476
0.000183484
0.00019209
0.000220653
0.000209738
0.000193107
0.000200151
0.000189827
0.000190738
0.000169847
0.000116499
0.000174848
0.000228817
0.000278384
0.000306553
0.000181847
0.000152323
0.000104915
0.000166274
0.000209773
0.000212181
0.00018142
0.000194209
0.000215146
0.000215579
0.000200515
0.000203988
0.000193984
0.000188992
0.000165054
0.000148299
0.000189726
0.000241663
0.000264325
0.000253421
0.000216395
0.000158382
8.75209e-05
0.000143225
0.000195102
0.000202279
0.00017996
0.000182938
0.000205454
0.000210622
0.000216397
0.000206764
0.000197492
0.000182623
0.000176641
0.000183556
0.000214269
0.000222519
0.000235832
0.000224962
0.000199217
0.00015966
0.000121747
0.000134197
0.000187511
0.000185672
0.000179928
0.000204203
0.000182468
0.000191899
0.000221321
0.000209768
0.000189185
0.000176057
0.000188856
0.000212405
0.000220905
0.000216195
0.000209352
0.000201297
0.000183475
0.000168969
0.000167038
0.000166682
0.000188216
0.000183052
0.000187044
0.000164474
0.000147202
0.000193798
0.000256219
0.000252249
0.000233294
0.000210124
0.000198272
7.37188e-05
4.77576e-05
0.000207043
0.000357964
0.000329474
0.000229614
0.000264129
0.000194892
0.000182458
0.000206135
0.000196783
0.00014999
0.000138205
0.000164931
0.00022032
0.000256361
0.000237281
0.000233492
0.000209805
0.000162236
3.35244e-05
9.56533e-05
0.000206439
0.000373357
0.000331199
0.000227888
0.000264043
0.000194469
0.00018246
0.000205008
0.000196855
0.000149173
0.000169576
0.000168022
0.000191741
0.000258395
0.000252536
0.000239358
0.00021624
0.000164991