/*--------------------------------*- C++ -*----------------------------------*\
| =========                 |                                                 |
| \\      /  F ield         | OpenFOAM: The Open Source CFD Toolbox           |
|  \\    /   O peration     | Version:  5.0                                   |
|   \\  /    A nd           | Web:      www.OpenFOAM.org                      |
|    \\/     M anipulation  |                                                 |
\*---------------------------------------------------------------------------*/
FoamFile
{
    version     2.0;
    format      ascii;
    class       volVectorField;
    location    "0";
    object      U;
}
// * * * * * * * * * * * * * * * * * * * * * * * * * * * * * * * * * * * * * //

dimensions      [0 1 -1 0 0 0 0];

internalField   nonuniform List<vector> 
7200
(
(0.0227034 0.000520547 0.00436691)
(0.0224013 0.000993522 0.00205245)
(0.0252864 0.00121958 0.00182403)
(0.0281447 0.000887991 0.0015346)
(0.0313645 0.000415458 0.00121616)
(0.0384247 9.1043e-05 0.00163847)
(0.0441103 -0.000329594 -0.00420317)
(0.0448897 -0.000799101 -0.00547417)
(0.0396201 -0.000311406 -0.0042551)
(0.0351073 -1.71891e-05 -0.00163774)
(0.0315765 -1.54074e-05 -0.000656689)
(0.0312992 4.56808e-05 0.00319825)
(0.0300806 -0.000239738 0.000278823)
(0.0305902 4.78485e-05 -0.000717148)
(0.0388885 -0.000611939 -0.00246923)
(0.0451215 -0.000311204 -0.00733913)
(0.0411564 0.000185146 -0.00713431)
(0.0434364 -7.34618e-05 -0.00470085)
(0.0516375 -0.000563961 -0.00311863)
(0.0555546 -0.000336333 -0.0072275)
(0.0363742 0.00166133 0.00404169)
(0.0367921 0.00219855 0.0019278)
(0.0449145 0.00258793 0.00482492)
(0.0481487 0.00172785 0.00353686)
(0.0540962 0.000346735 0.00506101)
(0.0610649 -0.000159331 0.00667303)
(0.0734034 -0.00106056 0.000412672)
(0.0746741 -0.00157672 -0.0047869)
(0.0657846 -0.00071233 -0.00690992)
(0.0571129 9.67313e-05 -0.00292068)
(0.0537917 0.000152925 -0.00264935)
(0.0532257 0.000309862 0.00224609)
(0.0511284 -0.000225562 -1.18199e-05)
(0.0472852 0.000270446 -0.00144031)
(0.0563388 -0.00131277 -0.00271393)
(0.0664505 -0.000966355 -0.00859309)
(0.0627743 0.000432661 -0.00900621)
(0.0647494 -0.000104229 -0.00407358)
(0.0790049 -0.00172143 -0.000298955)
(0.0868777 -0.000887403 -0.00762263)
(0.0599644 0.00420234 0.00296037)
(0.0597364 0.00517805 -0.00117008)
(0.0660936 0.00527113 -0.00171396)
(0.0784529 0.00519819 0.00862286)
(0.0875993 0.00194356 0.00961603)
(0.10078 -0.00144313 0.0146776)
(0.11686 -0.00438743 0.0116971)
(0.115936 -0.0025802 0.00310099)
(0.103808 -0.000922033 -0.00812338)
(0.093477 -0.000450266 -0.00688869)
(0.0869284 0.00157573 -0.00595321)
(0.0866172 0.00167406 -0.00316448)
(0.0876103 0.000918648 -0.00371171)
(0.0796488 0.00101442 -0.00297537)
(0.0808739 -0.00220262 -0.00420205)
(0.0793161 -0.000296168 -0.00765317)
(0.0761947 0.00160388 -0.00684105)
(0.081218 0.00084272 0.00516526)
(0.0901793 -0.00338046 0.0128002)
(0.10172 -0.00501681 0.00481224)
(0.0887743 0.00553313 0.00986482)
(0.0886871 0.00782013 0.00172436)
(0.100409 0.0104033 -0.0162054)
(0.100038 0.00700915 -0.0055543)
(0.106523 0.00481857 0.00581774)
(0.108951 0.00289934 0.00879522)
(0.116745 -0.00723352 0.0111544)
(0.13768 -0.00706523 0.00831264)
(0.134757 -0.00102386 0.00202263)
(0.125792 -0.00101406 -0.00681754)
(0.118605 0.00115375 -0.00806978)
(0.110431 0.00265105 -0.00885087)
(0.112034 -0.000475462 0.000777793)
(0.116191 0.00230006 -0.00754318)
(0.120497 0.000185479 -0.00654308)
(0.101026 0.000744416 -0.00666629)
(0.0867778 0.00428066 -0.0036092)
(0.0986822 0.00156781 0.0100694)
(0.110773 -0.000906341 0.0128026)
(0.108404 -0.00512289 0.0105)
(0.118927 0.00532803 0.0139725)
(0.105255 0.00540961 0.0101148)
(0.121356 0.00984705 -0.011695)
(0.118477 0.00927562 -0.0155515)
(0.108917 0.00571334 -0.00958894)
(0.110628 0.00578776 0.000155928)
(0.12545 -0.00271318 0.0148734)
(0.134632 -0.0125504 0.0136093)
(0.145114 -0.00294359 0.00498102)
(0.135154 -0.000918633 -0.000339848)
(0.127767 0.00174735 -0.00274315)
(0.120852 0.00224788 -0.00723884)
(0.115954 -0.000103251 -0.00269155)
(0.113112 0.00438737 -0.00310075)
(0.119314 0.000461496 -0.00245937)
(0.102898 0.00267736 -0.00703331)
(0.0955713 0.00412604 -0.00573646)
(0.101992 0.00216001 -0.000303609)
(0.115399 0.00138152 0.00135855)
(0.113295 -0.00229558 0.0100907)
(0.150095 0.00751344 0.01161)
(0.123015 0.00211652 0.0139027)
(0.119222 0.00242468 -0.000424394)
(0.12299 0.0071368 -0.00761712)
(0.116933 0.00824485 -0.015758)
(0.11587 0.00823564 -0.0126849)
(0.125922 -0.00647439 -0.0051384)
(0.138709 -0.0141472 0.00953209)
(0.152406 -0.00559249 0.00753792)
(0.148893 -0.0029868 0.00171925)
(0.127496 0.00235373 0.00590126)
(0.130651 0.00493916 0.00197881)
(0.113035 0.00601957 -0.000296425)
(0.114139 0.00533736 0.00155586)
(0.114768 0.00272128 0.00314691)
(0.112187 0.00175084 -0.00475108)
(0.10946 0.00158268 -0.00975057)
(0.116568 0.00172997 -0.00396507)
(0.121231 0.00169877 -0.00531972)
(0.12265 0.00355171 0.00460525)
(0.149101 0.00225199 0.0117249)
(0.127641 0.00133118 0.0150579)
(0.112571 -0.00168823 0.0127956)
(0.111333 0.00102719 -0.00421631)
(0.119746 0.00985139 -0.013978)
(0.120332 0.0082587 -0.0161715)
(0.125803 -0.00150463 -0.0146624)
(0.138696 -0.0168995 -0.00162645)
(0.143238 -0.0113583 0.0109144)
(0.149524 -0.00365545 0.000971608)
(0.135245 -0.00122228 0.00216243)
(0.128201 0.00262793 0.00511459)
(0.120865 0.00648359 -0.000858315)
(0.111728 0.0106735 0.0044887)
(0.118355 0.00573019 0.00586221)
(0.119201 0.00290704 0.00552844)
(0.116385 0.00122115 -0.00799278)
(0.117005 0.00239487 -0.00532807)
(0.12493 0.00414138 -0.00271377)
(0.126824 0.00849178 -0.00699776)
(0.139542 0.00191117 0.00805026)
(0.136064 0.00232994 0.00700364)
(0.126309 0.000149393 0.0106642)
(0.104296 0.00287597 0.00239884)
(0.106527 0.0111532 -0.0067385)
(0.116654 0.00703024 -0.0161549)
(0.127016 -0.00401959 -0.0171534)
(0.144294 -0.0140496 0.00363881)
(0.13879 -0.00990468 0.0101713)
(0.149998 -0.00695822 -0.000563151)
(0.152604 -0.0030902 -0.000233274)
(0.136125 -0.00331526 0.00790267)
(0.128599 -5.50369e-05 0.00418718)
(0.120766 0.011037 0.000398512)
(0.126108 0.00968999 0.0114059)
(0.126768 0.00361243 0.00108592)
(0.12246 0.00073104 -0.00772662)
(0.119105 0.00511839 -0.0023026)
(0.11805 0.00571128 0.00278678)
(0.12627 0.00782952 0.00176969)
(0.134413 -0.00101375 0.00324131)
(0.13739 0.00215655 0.00548236)
(0.139372 0.00235827 0.00527756)
(0.131738 0.00190764 0.00446337)
(0.120432 0.00296372 -0.00155361)
(0.128614 0.00482333 -0.0040189)
(0.144676 -0.00188034 -0.00156289)
(0.144939 -0.0100425 -0.000999877)
(0.152018 -0.00508727 0.00789075)
(0.150016 -0.00810871 0.000867548)
(0.152318 -0.00673624 -0.00647463)
(0.157164 -0.00545791 -0.00172652)
(0.14716 -0.00212813 0.00348469)
(0.1359 0.00288741 -0.000475213)
(0.12962 0.0124381 0.00427927)
(0.137976 0.00633959 -0.00111206)
(0.134069 0.00221189 -0.0120543)
(0.127986 0.00504034 -0.0108711)
(0.12608 0.00722516 -0.00350758)
(0.133841 0.0032146 0.00133317)
(0.133941 -0.000108725 -0.00695543)
(0.136404 0.000406451 -0.000386914)
(0.138382 0.000987207 0.000646829)
(0.144278 0.00180226 0.00206568)
(0.145654 0.00132635 0.0033144)
(0.145677 5.70272e-05 0.00502074)
(0.149719 -0.000957839 0.00449364)
(0.150938 -0.00382719 0.00191095)
(0.150067 -0.00470664 0.00305746)
(0.152283 -0.00351711 0.00276187)
(0.154063 -0.00605074 -0.00283542)
(0.156007 -0.00869333 -0.00389814)
(0.15584 -0.00552711 0.00209119)
(0.145849 0.00363871 0.00360462)
(0.139865 0.00901995 0.00223532)
(0.145681 0.00273727 0.0056403)
(0.14697 -0.00234978 -0.00200555)
(0.145366 -0.000148332 -0.00783549)
(0.145527 -0.000429661 -0.0086099)
(0.147632 -0.00179497 -0.00546017)
(0.143174 0.00352411 -0.0102985)
(0.139813 0.0043821 -0.00760292)
(0.143887 0.00149667 -0.00152369)
(0.147932 -0.00243407 0.0001311)
(0.150372 -0.00381276 0.0010673)
(0.150608 -0.0032579 0.00268268)
(0.152182 -0.00222159 0.00413936)
(0.156073 -0.00117142 0.00285377)
(0.157526 0.00176284 0.00604789)
(0.154793 0.00188918 0.00790051)
(0.153401 -0.00340283 0.0053129)
(0.155066 -0.0056298 0.00218995)
(0.15623 -0.00364541 -0.000860623)
(0.154598 0.0049443 0.000983503)
(0.157764 0.0042809 0.00397061)
(0.161004 -0.00408911 0.00660497)
(0.152125 -0.00216218 0.0006076)
(0.147422 0.000349209 -0.00479797)
(0.148799 -0.0021667 -0.00565832)
(0.152826 -0.00380156 -0.0031557)
(0.140407 0.00501981 -0.00209832)
(0.139127 0.00536237 -0.00215761)
(0.144867 0.00166311 -0.0029884)
(0.149551 -0.00230254 -0.00286784)
(0.151224 -0.00400338 -0.00374834)
(0.150651 -0.00364215 -0.00517303)
(0.149729 -0.00238078 -0.00590901)
(0.152631 0.00156519 -0.00176364)
(0.15401 0.00503419 0.00350781)
(0.154403 0.00303389 0.00853181)
(0.155396 -0.00353381 0.00754796)
(0.155422 -0.00584732 0.00394223)
(0.154501 0.000276695 -0.000587121)
(0.156169 0.00285933 0.000498491)
(0.161485 0.000561961 0.00426936)
(0.163695 -0.0032216 0.00737097)
(0.158063 -3.9768e-05 0.00340863)
(0.153659 0.0020371 -0.00119538)
(0.153038 0.00133324 -0.0016514)
(0.154092 -0.00241562 0.00123318)
(0.049333 0.000578516 -0.00877421)
(0.0435009 -0.000187009 -0.00874119)
(0.0380289 -0.000746534 -0.00373939)
(0.036394 -0.000585717 -0.00256353)
(0.036447 -0.000381135 -0.0015166)
(0.0395265 -0.000520442 0.000893304)
(0.0387767 -0.000380532 0.00292476)
(0.0342044 -2.94961e-05 0.00203263)
(0.0330909 9.8326e-07 0.00062647)
(0.0348714 4.62756e-05 -0.0024125)
(0.0351633 0.000317039 -0.00577435)
(0.0329789 0.000394054 -0.00862231)
(0.0322883 1.68025e-05 -0.00755666)
(0.0346818 -9.61527e-05 -0.00559941)
(0.0388239 -1.7491e-07 -0.00231475)
(0.043183 2.40297e-05 0.00115652)
(0.0444823 -7.37552e-05 0.00241245)
(0.0509125 -0.000658558 0.00348922)
(0.0515525 -0.000204581 0.00380104)
(0.0457851 8.65027e-05 0.00282507)
(0.0815766 0.000698611 -0.0103425)
(0.0754685 -0.000527771 -0.0109341)
(0.0619013 -0.00112758 -0.00392924)
(0.0570381 -0.000389758 0.00061666)
(0.0536789 -5.59023e-05 -0.000370091)
(0.0559116 -0.000172268 0.00161798)
(0.0577344 9.80692e-06 0.00621551)
(0.0569483 0.000203323 0.00172506)
(0.0556677 0.000318005 -0.000664973)
(0.0606602 0.000260737 -0.00264064)
(0.0707346 -0.000577495 -0.00553313)
(0.0590723 0.000660737 -0.0114435)
(0.0651752 -0.000460993 -0.00532908)
(0.0535588 -0.000214303 -0.00502403)
(0.057946 -0.000256629 -0.00673994)
(0.0668148 4.81299e-05 0.000258301)
(0.0469134 0.000564 -0.00283715)
(0.0565158 6.23151e-05 0.000732858)
(0.0628046 0.000763258 0.00474982)
(0.0773879 0.000182702 0.00593597)
(0.0964173 -0.000236536 0.000115587)
(0.109561 -0.00278248 -0.00571911)
(0.110654 0.000408687 -0.00762925)
(0.0890159 0.000100243 -0.00075331)
(0.08169 1.53204e-05 -0.00699898)
(0.0856963 -0.00045303 -0.00478239)
(0.0913379 -0.000222058 5.41354e-05)
(0.0885874 0.000437794 0.00303601)
(0.0853033 0.000824653 0.000313828)
(0.0913597 0.000111714 -0.00143905)
(0.0932508 0.000214045 -0.0072051)
(0.0959361 0.000247735 -0.0113625)
(0.107538 -0.00122291 -0.00468087)
(0.0966767 2.67403e-05 -0.00384373)
(0.0879957 0.000341473 -0.00544108)
(0.0890757 -0.00078843 -0.00649382)
(0.0704774 0.000515617 -0.00258496)
(0.0785832 0.000683983 -0.00163481)
(0.0863528 0.00151434 0.00143984)
(0.107603 -0.000492191 0.00572155)
(0.108954 -0.00162388 0.02059)
(0.128254 -0.00348132 0.00471067)
(0.128411 -0.000611518 -0.00847412)
(0.128305 0.00243659 -0.0043225)
(0.118929 0.00331351 -0.00442912)
(0.107326 0.00285105 -0.00508549)
(0.11045 0.00223158 -0.012518)
(0.11729 0.00269901 0.00246174)
(0.123189 0.00122415 0.00197862)
(0.121029 0.00183375 -0.0037827)
(0.122298 0.00265103 -0.0052147)
(0.125788 -0.00668398 -0.00259414)
(0.129639 -0.00476086 -0.00856083)
(0.121199 -0.00176804 -0.00223133)
(0.122932 -8.67268e-05 -0.00107915)
(0.119802 0.00247181 -0.00395422)
(0.117824 -0.00449465 -0.0112801)
(0.113083 0.00102222 0.000702475)
(0.10668 0.00291866 -0.00283161)
(0.10288 -0.00051784 -0.00433283)
(0.123233 0.00162971 0.020958)
(0.116868 -0.00673215 0.0227991)
(0.129374 -0.0114206 -0.00338748)
(0.144888 0.000602812 -0.00824057)
(0.138755 0.0050052 -0.00747276)
(0.125302 0.00485851 -0.00830358)
(0.11897 0.00811494 -0.00344073)
(0.12127 0.00627194 -0.00525796)
(0.12869 0.00486049 -0.00160521)
(0.129182 0.00529248 -0.00472507)
(0.131853 -0.00257544 0.00480562)
(0.131466 -0.00882164 0.00907612)
(0.130958 -0.00917566 0.000707597)
(0.129858 -0.00311091 -0.00296088)
(0.11838 -0.000788016 0.00353939)
(0.113495 0.00185503 -0.00323629)
(0.127071 -0.00397317 -0.00565905)
(0.116131 -0.00111336 -0.00171142)
(0.11262 0.00579088 -0.00308655)
(0.108145 0.00128435 -0.0030574)
(0.127174 0.00688933 0.00953229)
(0.130839 -0.000718008 0.016396)
(0.140267 -0.0096923 0.00570901)
(0.14224 -0.00244859 -0.00329435)
(0.147608 0.00305539 -0.00754638)
(0.139368 0.00685059 -0.0129728)
(0.128265 0.0124037 -0.0105215)
(0.129295 0.00995306 0.0136134)
(0.135226 0.00791384 0.00983925)
(0.133069 0.00954348 0.00677799)
(0.136734 -0.000569034 0.017382)
(0.130797 -0.00432662 0.0153115)
(0.12387 -0.00754166 0.00581854)
(0.133465 -0.00409066 -0.000650174)
(0.121764 -0.000813042 0.00350953)
(0.125137 -0.00113173 0.00490097)
(0.128534 -0.00568981 -0.00576847)
(0.120572 0.00141568 -0.00518454)
(0.119074 0.00493099 -0.00556645)
(0.125386 0.00431864 -0.0037392)
(0.126559 0.0108062 0.00624282)
(0.134661 0.00368172 0.0116208)
(0.134427 -0.0158554 0.00806169)
(0.136602 -0.00986157 0.00120197)
(0.14531 -0.00406938 -0.0073631)
(0.13864 0.00405603 -0.0178618)
(0.127179 0.0169236 -0.0134574)
(0.126023 0.00943675 0.00785647)
(0.13366 0.00827988 0.012251)
(0.142119 0.0116602 0.0122711)
(0.132862 0.000258602 0.0210977)
(0.135676 -0.00965574 0.0205861)
(0.145717 -0.018329 0.0134374)
(0.142829 -0.00645954 0.00612996)
(0.134853 0.00177049 0.00135407)
(0.131461 -5.50633e-05 0.00387066)
(0.121385 -0.00542203 -0.00537954)
(0.133784 -0.00335029 -0.00740913)
(0.123611 0.0036528 -0.00257823)
(0.126721 0.00598438 -0.00423312)
(0.126496 0.00991848 0.00255431)
(0.136841 0.00584679 0.00184077)
(0.138833 -0.00707005 0.00755402)
(0.138172 -0.00949906 0.00196071)
(0.146388 -0.00445479 -0.0058123)
(0.125889 -0.000537712 -0.0115935)
(0.120656 0.00382828 -0.00832629)
(0.12507 -0.00168753 -0.00159754)
(0.131427 -0.00513347 0.00312932)
(0.137138 0.00818474 0.0110021)
(0.137869 -0.00118185 0.0072265)
(0.143724 -0.00847493 0.0103845)
(0.149565 -0.0135067 0.0102727)
(0.140724 -0.000125307 0.00447073)
(0.138302 0.00819121 0.00241878)
(0.144901 0.00180743 0.0037288)
(0.136837 -0.00777172 -0.00130254)
(0.129575 0.00157656 -0.00633842)
(0.125389 0.00293856 -0.00232654)
(0.133547 0.00309894 -0.00231417)
(0.131559 0.00643163 -0.00267483)
(0.135011 0.00354151 -0.00279125)
(0.142117 -7.69959e-05 0.00165651)
(0.139538 -0.00558385 0.00412848)
(0.137849 -0.0063116 0.00127395)
(0.136387 0.000211738 -0.00209682)
(0.131621 0.0029871 -0.00517506)
(0.128849 0.000256806 -0.010038)
(0.134962 -0.00417238 -0.0043306)
(0.137978 0.00137127 0.00391155)
(0.136344 0.00120872 -0.00121379)
(0.139352 -0.00834845 -0.000545305)
(0.145467 -0.0131036 0.00459815)
(0.138151 -0.00328992 0.00459644)
(0.145791 0.00422094 -0.000858742)
(0.155543 -0.00859776 0.00399476)
(0.156118 -0.0115417 0.00280385)
(0.142935 0.00159961 -0.00316905)
(0.136685 0.00555329 -0.000200012)
(0.1299 0.0037118 0.00294756)
(0.137097 0.00673224 -0.00655576)
(0.13781 0.00469047 -0.00557236)
(0.143551 0.00286194 -0.00170802)
(0.143873 0.00351217 0.00401568)
(0.14277 0.000879283 0.00789227)
(0.146222 -0.00185025 0.00838112)
(0.149166 -0.000451311 0.00564444)
(0.14893 -0.00265255 -0.00283687)
(0.147535 -0.00454236 -0.00211477)
(0.142296 -0.00404028 -0.00237848)
(0.137661 -0.000310662 -0.0074251)
(0.140775 -0.0069065 -0.00609541)
(0.147043 -0.00822537 0.000236622)
(0.148048 -0.00136517 -0.00127506)
(0.154248 0.000380663 0.000336023)
(0.16103 -0.00313782 0.00541782)
(0.158282 -0.00866233 0.00519841)
(0.150732 0.000563039 -0.000599413)
(0.144361 0.00589432 -0.00515789)
(0.145116 0.00329823 -0.00310582)
(0.142953 0.00270647 -0.00809728)
(0.14191 0.00258141 -0.00650004)
(0.145539 0.00123383 -0.00207137)
(0.150017 0.00160992 0.000916141)
(0.150766 0.00010442 0.00204839)
(0.14945 0.00165738 0.00419954)
(0.149078 0.00122922 0.00352997)
(0.148662 0.000580216 -0.000718509)
(0.147046 0.000184195 -0.00216962)
(0.14771 0.000162307 0.00116382)
(0.155979 -0.0050282 0.00305521)
(0.158598 -0.00643764 0.000984244)
(0.154786 -0.00123437 -0.00210994)
(0.155235 0.00280683 -0.00116567)
(0.159452 -0.000298614 0.00169719)
(0.163385 -0.00330413 0.00887856)
(0.161607 -0.00675812 0.00715312)
(0.155722 -0.00346651 0.00335674)
(0.147148 0.00203424 -0.00506224)
(0.147993 0.00260193 -0.00454146)
(0.143788 0.00201636 -0.000397782)
(0.144136 -0.000308644 -0.00149636)
(0.145553 -0.00281036 -0.00349537)
(0.148755 -0.00104142 -0.00297134)
(0.150571 -0.00134283 -0.00301483)
(0.149721 0.000998316 -0.00403958)
(0.148068 0.00178668 -0.00535198)
(0.14746 0.000431101 -0.00432239)
(0.149922 0.00126977 0.000969703)
(0.153124 0.000323589 0.00619496)
(0.153215 -0.00316832 0.00603159)
(0.152203 -0.00501492 0.00374162)
(0.151673 -0.00413828 0.00152673)
(0.154255 -0.00108664 0.00163392)
(0.157919 -0.00106434 0.00219776)
(0.162226 -0.00238343 0.00542114)
(0.162185 -0.00283761 0.00624353)
(0.156911 -0.00201753 0.00101888)
(0.15486 0.000169402 -0.00115948)
(0.152856 0.00094826 0.000130218)
(0.03998 0.0001314 -0.000619576)
(0.0366733 -0.000137151 -0.00424207)
(0.0293075 -0.00041344 -0.00437884)
(0.0256937 -0.000147437 -0.00172199)
(0.0251008 -0.000287093 -0.000434757)
(0.0265075 0.000185393 -0.0033428)
(0.0301688 0.000650726 -0.00083881)
(0.039901 -0.000219246 0.00305065)
(0.0485574 -0.000664429 -0.000242095)
(0.0508613 -0.000536553 -0.0041185)
(0.0504809 -0.000362115 -0.0028333)
(0.0546565 -0.00043795 -0.00152143)
(0.0605818 -0.000463256 -0.000490486)
(0.0636861 -0.000251407 -0.00203991)
(0.0613621 -0.000240221 -0.00150008)
(0.0540611 -0.000244292 0.00304569)
(0.0494691 -0.00032517 0.00139667)
(0.0377004 -0.000313167 0.00154513)
(0.0320812 -0.000260832 -0.000142085)
(0.0312635 0.000163816 -0.00390026)
(0.0670287 -0.000191576 0.000789256)
(0.0661162 -0.000547669 -0.00426135)
(0.0559368 -0.000580095 -0.00588292)
(0.0430424 -0.000297396 -0.00137367)
(0.0418066 -0.0006007 -0.00064272)
(0.0422714 0.000432929 -0.00454271)
(0.0466583 0.0013721 -0.000644886)
(0.0615826 -0.000744467 0.00514709)
(0.0786345 -0.00155435 -0.00107979)
(0.0783646 -0.00110659 -0.00573658)
(0.0769072 -0.000851848 -0.00421212)
(0.0844351 -0.0011448 -0.0017298)
(0.0899469 -0.00107809 -0.000850927)
(0.0993818 -0.000520425 -0.00443694)
(0.0941184 -0.000323043 -0.00243098)
(0.0846732 -0.000968009 0.00356288)
(0.0833995 -0.000856948 0.00228289)
(0.0693558 -0.000275311 0.00265389)
(0.0555589 -0.000611318 0.00144239)
(0.0545505 0.000198939 -0.00455787)
(0.0990913 -0.000847867 0.0105495)
(0.0997096 -0.00331991 0.00941692)
(0.113594 -0.00167669 0.000976298)
(0.0924624 0.000341432 -0.00780443)
(0.078775 -0.000984699 -0.00299675)
(0.0682993 0.00079383 -0.0070513)
(0.0715171 0.00292794 -0.00542003)
(0.0896184 -0.00170789 0.000667045)
(0.108046 -0.00478755 0.00224996)
(0.115371 -0.00310176 -0.00438048)
(0.103918 -0.00154684 -0.00392722)
(0.104495 -0.00203592 -0.00101024)
(0.110669 -0.00279763 0.00104365)
(0.131139 -0.00134402 -0.00169494)
(0.129617 -0.000333007 -0.00812032)
(0.121333 -0.000702978 -0.00060317)
(0.111405 -0.00276056 0.0050937)
(0.11444 -0.00103554 0.0010511)
(0.10042 -0.000430287 0.00552964)
(0.0914102 -0.000395103 0.00240292)
(0.128063 0.00277212 0.00427825)
(0.124708 -0.000603046 0.0110311)
(0.130449 -0.00738849 0.015016)
(0.131643 0.0020419 -0.00256067)
(0.114434 0.00137285 -0.00138387)
(0.103095 0.00323549 -0.00801627)
(0.105888 0.00226635 -0.0154943)
(0.117418 -0.00286028 -0.01589)
(0.127822 -0.00610715 -0.00676329)
(0.13108 -0.00477647 -0.00668622)
(0.127612 -0.00213477 -0.0112747)
(0.120506 -0.00330868 -0.00409626)
(0.124589 -0.00481174 0.00440466)
(0.132797 -0.00530486 0.00444236)
(0.132242 0.00202117 -0.00297192)
(0.121504 -0.00210126 0.000461067)
(0.11631 -0.00289519 0.00472647)
(0.119072 -0.0034351 -0.00121259)
(0.127987 -0.00158716 0.00230136)
(0.116896 0.00108201 0.00802037)
(0.12789 0.00316431 0.00543831)
(0.133494 -0.00428741 0.0139518)
(0.134859 -0.00875961 0.0144117)
(0.136058 -0.00122005 0.00350177)
(0.121982 0.00256295 -0.000248432)
(0.11518 0.00238369 -0.0027648)
(0.117798 0.000551599 -0.00879859)
(0.128526 -0.00579096 -0.0117551)
(0.134511 -0.00531409 -0.00699487)
(0.131311 -0.00245548 -0.00714402)
(0.124834 -0.000324261 -0.00402051)
(0.125262 -0.00268067 0.00440092)
(0.131105 -0.00594325 0.0104244)
(0.138796 -0.00328776 0.00454705)
(0.133831 0.00395394 -0.000264927)
(0.124416 0.00148008 -0.00434121)
(0.119869 -0.00275682 0.00226994)
(0.123108 -0.00328879 -0.00316524)
(0.127151 -0.00221696 -0.00083072)
(0.122327 0.00252616 0.00595473)
(0.128724 0.00122004 0.00101723)
(0.134429 -0.00352743 0.0119201)
(0.133933 -0.00712099 0.00918462)
(0.129204 -0.00163582 0.00075891)
(0.131307 0.00134429 0.00130655)
(0.133354 0.00107424 -0.00133168)
(0.128115 0.000116065 -0.00415447)
(0.125318 -0.00404244 -0.00340426)
(0.13166 -0.00418237 -0.00244382)
(0.126254 -0.000370061 -0.00310168)
(0.121814 0.00258893 0.00320149)
(0.134893 -0.00116722 0.0136058)
(0.141498 -0.0054588 0.016303)
(0.141953 -0.00438121 0.011703)
(0.135346 0.00651097 0.00152452)
(0.126125 0.004128 -0.00487408)
(0.128748 -0.00322849 -0.00055824)
(0.129288 -0.00321621 -0.00305131)
(0.130969 -0.00125016 -0.00430529)
(0.126425 0.0024578 0.00267384)
(0.135318 0.00179908 -0.000526962)
(0.133227 -0.00265302 0.00788913)
(0.13476 -0.00341461 0.00416589)
(0.13999 -3.14688e-05 -0.00318866)
(0.138589 -0.00309797 0.00248866)
(0.137473 -0.00176316 0.000400632)
(0.130158 0.000884019 -0.00375507)
(0.126576 -0.000233683 0.00398052)
(0.125986 0.00265593 -0.000344417)
(0.12474 0.00522512 0.00261144)
(0.132418 0.00423498 0.0144394)
(0.142407 -0.0019732 0.0119434)
(0.149409 -0.00639268 0.0123206)
(0.145097 -0.00223302 0.0128758)
(0.139473 0.00907211 0.00370948)
(0.135073 -0.00133987 -0.00648744)
(0.144602 -0.00685305 -0.000789633)
(0.139889 -0.00355858 -0.000166496)
(0.132748 -0.000137501 -0.00420571)
(0.130935 0.00155867 -0.000826979)
(0.137617 0.00208207 -0.00368984)
(0.140649 -0.000365234 -0.00206063)
(0.13527 -0.00458799 0.00282064)
(0.138663 -0.00241931 -0.000552605)
(0.144603 0.000389133 -0.00454467)
(0.134486 -0.00232229 0.00039811)
(0.127403 0.000840797 -0.000640956)
(0.123305 0.00352654 -0.0015567)
(0.12114 0.00523725 0.00784846)
(0.12576 0.00879438 0.013635)
(0.136403 0.00438232 0.00416568)
(0.141108 -0.00266065 -0.00224677)
(0.143226 -0.00541799 0.00525575)
(0.140215 0.00378005 0.007696)
(0.1409 0.00898846 0.00462882)
(0.14474 -0.00371096 0.00111377)
(0.148532 -0.00953463 0.00118353)
(0.144853 -0.00119787 -0.000591203)
(0.139098 0.00124313 -0.00211235)
(0.136943 0.000389515 0.00153076)
(0.141862 0.003923 -0.0031645)
(0.142599 8.95491e-05 -0.00435469)
(0.141672 -0.00193813 -0.000422023)
(0.139013 -0.00196681 0.00226332)
(0.13998 -0.000680202 -0.00226107)
(0.140111 -0.00128298 -0.000613604)
(0.136479 -0.000882414 0.00205173)
(0.134199 0.00184619 -0.00406646)
(0.129331 0.00295023 0.00794826)
(0.130372 0.00507062 0.0119834)
(0.138966 0.00420368 -0.00624017)
(0.139822 -0.00114805 -0.00976228)
(0.137526 -0.00593146 -0.000617308)
(0.138697 0.00442142 0.00343127)
(0.143149 0.00717436 0.00189244)
(0.154093 -0.00611603 0.00428116)
(0.154603 -0.0110895 0.00249671)
(0.151364 -0.00241349 0.000925485)
(0.146819 0.00212977 0.00240047)
(0.139339 0.00269334 0.0049731)
(0.147707 0.00283387 -0.00602848)
(0.150884 0.000547397 -0.00821531)
(0.15204 0.00043953 -0.00744529)
(0.144615 0.000451878 -0.000748618)
(0.140559 0.00105291 0.000599254)
(0.141025 -0.000516537 0.00183686)
(0.146328 -0.00254495 0.00397023)
(0.148072 -0.000370223 0.0019044)
(0.142739 0.00251998 0.000267436)
(0.140284 0.00713491 -0.00210404)
(0.14142 0.0081367 -0.00641976)
(0.142126 -0.00205053 -0.0119309)
(0.139659 -0.00464976 -0.00885164)
(0.139709 -0.000498813 -0.00209359)
(0.151187 -0.00113928 -0.00136706)
(0.158219 -0.00790627 0.00286747)
(0.155361 -0.00879867 0.00438245)
(0.152795 -0.00572646 0.00232119)
(0.151604 0.00401595 -0.000926481)
(0.149977 0.00476087 -0.000437621)
(0.147363 0.00135255 -0.00445451)
(0.14614 0.000153275 -0.00427667)
(0.147043 -3.65771e-05 -0.00270153)
(0.147661 0.00178993 -0.000998662)
(0.144334 0.0031027 0.00282486)
(0.144034 0.00053244 0.00261172)
(0.148603 -0.00318216 0.000394056)
(0.152096 -0.00173472 -0.000314263)
(0.144845 0.0028035 0.00125097)
(0.141616 0.00415972 0.00160936)
(0.144709 0.00337511 0.00233133)
(0.147404 0.000454006 0.00146966)
(0.14896 -0.00358054 -0.00414606)
(0.15205 -0.0018863 -0.005376)
(0.155583 -0.00056784 -0.000575221)
(0.159853 -0.0024794 0.00532003)
(0.155917 -0.00546085 0.00680827)
(0.15286 -0.00152214 0.00450159)
(0.15245 0.00118927 -0.00182439)
(0.150195 0.000251641 -0.00355534)
(0.144582 0.000367068 0.00129787)
(0.145191 -0.00134292 0.000570989)
(0.146582 -0.00251642 -0.000285634)
(0.14792 -0.000167626 -0.0016315)
(0.150426 0.00131973 -0.00261615)
(0.152554 -0.00140668 -0.00238323)
(0.150864 -0.00367502 -0.00265789)
(0.148152 -0.00243062 -0.00421067)
(0.148653 -0.000501926 -0.00224142)
(0.151093 0.000343427 0.00394717)
(0.154177 0.000375468 0.00712657)
(0.155534 -0.000378917 0.00357191)
(0.154566 -0.00168279 0.00163651)
(0.154961 -0.00221738 0.000710473)
(0.157614 -0.00132102 0.000824351)
(0.160211 -0.000757318 0.00406894)
(0.159356 -0.00304751 0.00495568)
(0.155171 -0.00307019 0.00333219)
(0.154385 -0.00116344 0.00375835)
(0.153614 0.000934523 0.00303461)
(0.0473295 -0.000179226 0.00321991)
(0.0445916 -0.000449068 0.0044633)
(0.0345606 -0.000783817 0.00608336)
(0.029781 -0.00050989 0.00346857)
(0.0320615 0.000156844 0.00147684)
(0.0362242 -0.000238802 -0.0037904)
(0.0352043 -0.000139835 -0.00613079)
(0.0365289 0.000222852 -0.00113378)
(0.0419036 -0.000204254 0.00159433)
(0.0462404 -0.000535883 0.000688365)
(0.0488627 -0.000470659 -0.000640257)
(0.0544022 -0.000658635 -0.00059498)
(0.0603527 -0.000614214 0.00115841)
(0.0633096 -0.000523231 0.00155515)
(0.0581701 -0.00015937 0.0033347)
(0.056888 -0.000159605 0.00558843)
(0.0591584 -0.000427178 0.00580914)
(0.0558936 -0.000323752 0.00771802)
(0.053751 -0.000548405 0.00506023)
(0.0548782 -0.000350129 0.00234077)
(0.0825458 -0.000759404 0.00584335)
(0.083345 -0.000702759 0.00654766)
(0.0558608 -0.00116325 0.00727033)
(0.0473771 -0.000592773 0.00379998)
(0.049293 0.000354226 0.00110154)
(0.0579884 -0.000467132 -0.00495189)
(0.0562552 -7.19325e-05 -0.00804669)
(0.0568235 0.000459122 -0.00127364)
(0.068115 -0.000798469 0.00270164)
(0.0713273 -0.00116663 0.00134326)
(0.0738716 -0.00103072 -0.00123358)
(0.0802767 -0.00151604 -0.00275251)
(0.0903657 -0.00165339 -0.000695822)
(0.0988364 -0.00142051 -0.000191425)
(0.0923692 -0.000554456 0.00175294)
(0.0899175 -0.00109304 0.00701196)
(0.0924738 -0.00109121 0.00591421)
(0.0872797 -0.00077896 0.00952201)
(0.0849726 -0.0014239 0.00835487)
(0.089494 -0.00131191 0.00388392)
(0.104794 -2.59369e-05 0.00498351)
(0.115076 -0.00309095 0.00183942)
(0.135144 0.00111491 0.0100079)
(0.0767795 0.0013413 0.00127852)
(0.076219 0.000978688 -0.00374133)
(0.0841422 -0.000112575 -0.00913801)
(0.0855658 0.000750444 -0.0118717)
(0.0844864 0.000982944 -0.0046952)
(0.0985574 -0.00121944 0.00341502)
(0.101014 -0.00223723 0.00146715)
(0.0996891 -0.00149836 -0.00201967)
(0.0993617 -0.00221881 -0.00437828)
(0.117223 -0.00416973 -0.00229911)
(0.13173 -0.00323916 -0.000946758)
(0.122482 -0.00188239 -0.00210119)
(0.113741 -0.00156783 0.00744289)
(0.112016 -0.00318301 0.00361735)
(0.11929 -0.00107551 0.00595615)
(0.110117 -0.0031333 0.0077689)
(0.114824 -0.00448312 0.00417517)
(0.116947 0.00229264 0.00121584)
(0.123401 -0.00982212 0.00749327)
(0.146414 -0.00364928 0.00581009)
(0.119739 0.00575339 0.00657975)
(0.102469 0.00298991 0.000984458)
(0.111844 -0.000105107 -0.00807172)
(0.113913 0.00119207 -0.0133625)
(0.113333 0.000698699 -0.0148585)
(0.114502 -0.00454746 -0.00727048)
(0.118696 -0.00497164 -0.00748522)
(0.115965 -0.0024004 -0.00442764)
(0.112536 -0.00237257 0.000528897)
(0.12368 -0.00560381 -0.0006802)
(0.134944 -0.00656944 -3.66935e-06)
(0.131602 0.000164899 0.000450028)
(0.110432 -0.000720564 0.00023264)
(0.111612 -0.00167754 -0.000348476)
(0.111799 -0.00355936 -0.00133379)
(0.111948 -0.000246832 0.00357362)
(0.121507 -0.00567018 -0.00251087)
(0.120061 0.00334433 0.00206853)
(0.122524 -0.00925367 0.00494043)
(0.134346 -0.00678303 0.00601354)
(0.144285 0.00748318 0.0118839)
(0.12015 0.000344973 0.00796097)
(0.11958 -0.00212959 0.00685999)
(0.123322 5.93072e-05 -0.00509482)
(0.122686 -3.77052e-06 -0.014114)
(0.128518 -0.00538468 -0.0089836)
(0.129394 -0.00666687 -0.008498)
(0.125467 -0.00328538 -0.00554351)
(0.119893 -0.00170859 0.000225063)
(0.127941 -0.00476691 0.00144458)
(0.140845 -0.00386779 0.00133471)
(0.138318 0.00262884 0.00261609)
(0.114423 -0.00035224 -0.00225915)
(0.117043 0.000870738 -0.00127493)
(0.11444 -0.00355786 -0.00501754)
(0.115406 0.00050554 0.000566075)
(0.115199 -0.00263324 -0.00198833)
(0.11708 0.00614255 -0.00677297)
(0.127937 -0.00244632 0.00583624)
(0.118295 -0.00761843 0.00592397)
(0.121774 0.00324232 0.0031142)
(0.13359 -0.00384828 0.00400005)
(0.138909 -0.00325712 0.00332136)
(0.133315 -5.40982e-06 0.000128114)
(0.129581 -5.46034e-05 -0.00660415)
(0.133588 -0.00401641 -0.00659409)
(0.128991 -0.00451577 -0.00554055)
(0.127089 -0.000642739 0.000279708)
(0.12557 0.00157198 0.00999151)
(0.131442 -0.00171406 0.00858696)
(0.142208 -0.00155314 0.00138078)
(0.142481 0.00487444 0.00328944)
(0.130067 0.000404714 -0.00025376)
(0.122887 0.000906674 -0.000810626)
(0.129218 -0.00104998 -0.00345823)
(0.122416 0.000990914 -0.000742782)
(0.125084 -0.00135162 -0.00262595)
(0.122503 0.00480011 -0.00576037)
(0.127073 -0.00509565 0.00711731)
(0.126701 -0.00255375 0.00128246)
(0.136875 0.00292432 -0.003654)
(0.138173 -0.00471928 0.00190683)
(0.13979 -0.00623383 0.00121633)
(0.134126 0.0021361 -0.00135967)
(0.134322 0.000540275 0.00024224)
(0.128675 -0.00108943 -0.00079141)